{
    "mp_id": "mp-17394",
    "nelements": 4,
    "nsites": 28,
    "elements": [
        "Ge",
        "Na",
        "O",
        "Y"
    ],
    "structure": {
        "@module": "pymatgen.core.structure",
        "@class": "Structure",
        "charge": null,
        "lattice": {
            "matrix": [
                [
                    11.41067225,
                    0.0,
                    0.0
                ],
                [
                    0.0,
                    6.41619056,
                    0.0
                ],
                [
                    0.0,
                    0.0,
                    5.26570625
                ]
            ],
            "a": 11.41067225,
            "b": 6.41619056,
            "c": 5.26570625,
            "alpha": 90.0,
            "beta": 90.0,
            "gamma": 90.0,
            "volume": 385.5184021904003
        },
        "sites": [
            {
                "species": [
                    {
                        "element": "Na",
                        "occu": 1
                    }
                ],
                "abc": [
                    0.5,
                    0.5,
                    0.5
                ],
                "xyz": [
                    5.705336125,
                    3.20809528,
                    2.632853125
                ],
                "label": "Na",
                "properties": {}
            },
            {
                "species": [
                    {
                        "element": "Na",
                        "occu": 1
                    }
                ],
                "abc": [
                    0.5,
                    0.0,
                    0.5
                ],
                "xyz": [
                    5.705336125,
                    0.0,
                    2.632853125
                ],
                "label": "Na",
                "properties": {}
            },
            {
                "species": [
                    {
                        "element": "Na",
                        "occu": 1
                    }
                ],
                "abc": [
                    0.0,
                    0.0,
                    0.0
                ],
                "xyz": [
                    0.0,
                    0.0,
                    0.0
                ],
                "label": "Na",
                "properties": {}
            },
            {
                "species": [
                    {
                        "element": "Na",
                        "occu": 1
                    }
                ],
                "abc": [
                    0.0,
                    0.5,
                    0.0
                ],
                "xyz": [
                    0.0,
                    3.20809528,
                    0.0
                ],
                "label": "Na",
                "properties": {}
            },
            {
                "species": [
                    {
                        "element": "Y",
                        "occu": 1
                    }
                ],
                "abc": [
                    0.77666809,
                    0.25,
                    0.49548557
                ],
                "xyz": [
                    8.862305022023502,
                    1.60404764,
                    2.6090814627338124
                ],
                "label": "Y",
                "properties": {}
            },
            {
                "species": [
                    {
                        "element": "Y",
                        "occu": 1
                    }
                ],
                "abc": [
                    0.22333191,
                    0.75,
                    0.50451443
                ],
                "xyz": [
                    2.548367227976497,
                    4.81214292,
                    2.6566247872661872
                ],
                "label": "Y",
                "properties": {}
            },
            {
                "species": [
                    {
                        "element": "Y",
                        "occu": 1
                    }
                ],
                "abc": [
                    0.27666809,
                    0.25,
                    0.00451443
                ],
                "xyz": [
                    3.156968897023502,
                    1.60404764,
                    0.023771662266187498
                ],
                "label": "Y",
                "properties": {}
            },
            {
                "species": [
                    {
                        "element": "Y",
                        "occu": 1
                    }
                ],
                "abc": [
                    0.72333191,
                    0.75,
                    0.99548557
                ],
                "xyz": [
                    8.253703352976496,
                    4.81214292,
                    5.241934587733812
                ],
                "label": "Y",
                "properties": {}
            },
            {
                "species": [
                    {
                        "element": "Ge",
                        "occu": 1
                    }
                ],
                "abc": [
                    0.90429828,
                    0.75,
                    0.55423478
                ],
                "xyz": [
                    10.31865128931873,
                    4.81214292,
                    2.9184375450133753
                ],
                "label": "Ge",
                "properties": {}
            },
            {
                "species": [
                    {
                        "element": "Ge",
                        "occu": 1
                    }
                ],
                "abc": [
                    0.40429828,
                    0.75,
                    0.94576522
                ],
                "xyz": [
                    4.61331516431873,
                    4.81214292,
                    4.980121829986625
                ],
                "label": "Ge",
                "properties": {}
            },
            {
                "species": [
                    {
                        "element": "Ge",
                        "occu": 1
                    }
                ],
                "abc": [
                    0.09570172,
                    0.25,
                    0.44576522
                ],
                "xyz": [
                    1.09202096068127,
                    1.60404764,
                    2.347268704986625
                ],
                "label": "Ge",
                "properties": {}
            },
            {
                "species": [
                    {
                        "element": "Ge",
                        "occu": 1
                    }
                ],
                "abc": [
                    0.59570172,
                    0.25,
                    0.05423478
                ],
                "xyz": [
                    6.797357085681269,
                    1.60404764,
                    0.28558442001337503
                ],
                "label": "Ge",
                "properties": {}
            },
            {
                "species": [
                    {
                        "element": "O",
                        "occu": 1
                    }
                ],
                "abc": [
                    0.60829201,
                    0.25,
                    0.72135692
                ],
                "xyz": [
                    6.941020758403722,
                    1.60404764,
                    3.7984536421247497
                ],
                "label": "O",
                "properties": {}
            },
            {
                "species": [
                    {
                        "element": "O",
                        "occu": 1
                    }
                ],
                "abc": [
                    0.39170799,
                    0.75,
                    0.27864308
                ],
                "xyz": [
                    4.469651491596277,
                    4.81214292,
                    1.46725260787525
                ],
                "label": "O",
                "properties": {}
            },
            {
                "species": [
                    {
                        "element": "O",
                        "occu": 1
                    }
                ],
                "abc": [
                    0.10829201,
                    0.25,
                    0.77864308
                ],
                "xyz": [
                    1.2356846334037224,
                    1.60404764,
                    4.10010573287525
                ],
                "label": "O",
                "properties": {}
            },
            {
                "species": [
                    {
                        "element": "O",
                        "occu": 1
                    }
                ],
                "abc": [
                    0.89170799,
                    0.75,
                    0.22135692
                ],
                "xyz": [
                    10.174987616596278,
                    4.81214292,
                    1.16560051712475
                ],
                "label": "O",
                "properties": {}
            },
            {
                "species": [
                    {
                        "element": "O",
                        "occu": 1
                    }
                ],
                "abc": [
                    0.54833861,
                    0.75,
                    0.81884895
                ],
                "xyz": [
                    6.256912160730572,
                    4.81214292,
                    4.311818033820938
                ],
                "label": "O",
                "properties": {}
            },
            {
                "species": [
                    {
                        "element": "O",
                        "occu": 1
                    }
                ],
                "abc": [
                    0.45166139,
                    0.25,
                    0.18115105
                ],
                "xyz": [
                    5.1537600892694275,
                    1.60404764,
                    0.9538882161790625
                ],
                "label": "O",
                "properties": {}
            },
            {
                "species": [
                    {
                        "element": "O",
                        "occu": 1
                    }
                ],
                "abc": [
                    0.04833861,
                    0.75,
                    0.68115105
                ],
                "xyz": [
                    0.5515760357305725,
                    4.81214292,
                    3.5867413411790623
                ],
                "label": "O",
                "properties": {}
            },
            {
                "species": [
                    {
                        "element": "O",
                        "occu": 1
                    }
                ],
                "abc": [
                    0.95166139,
                    0.25,
                    0.31884895
                ],
                "xyz": [
                    10.859096214269428,
                    1.60404764,
                    1.6789649088209375
                ],
                "label": "O",
                "properties": {}
            },
            {
                "species": [
                    {
                        "element": "O",
                        "occu": 1
                    }
                ],
                "abc": [
                    0.82641855,
                    0.53919472,
                    0.71132448
                ],
                "xyz": [
                    9.429991215370237,
                    3.4595760724658438,
                    3.745625760114
                ],
                "label": "O",
                "properties": {}
            },
            {
                "species": [
                    {
                        "element": "O",
                        "occu": 1
                    }
                ],
                "abc": [
                    0.17358145,
                    0.03919472,
                    0.28867552
                ],
                "xyz": [
                    1.9806810346297623,
                    0.2514807924658432,
                    1.520080489886
                ],
                "label": "O",
                "properties": {}
            },
            {
                "species": [
                    {
                        "element": "O",
                        "occu": 1
                    }
                ],
                "abc": [
                    0.32641855,
                    0.53919472,
                    0.78867552
                ],
                "xyz": [
                    3.724655090370237,
                    3.4595760724658438,
                    4.152933614886
                ],
                "label": "O",
                "properties": {}
            },
            {
                "species": [
                    {
                        "element": "O",
                        "occu": 1
                    }
                ],
                "abc": [
                    0.67358145,
                    0.03919472,
                    0.21132448
                ],
                "xyz": [
                    7.686017159629762,
                    0.2514807924658432,
                    1.1127726351140002
                ],
                "label": "O",
                "properties": {}
            },
            {
                "species": [
                    {
                        "element": "O",
                        "occu": 1
                    }
                ],
                "abc": [
                    0.67358145,
                    0.46080528,
                    0.21132448
                ],
                "xyz": [
                    7.686017159629762,
                    2.9566144875341567,
                    1.1127726351140002
                ],
                "label": "O",
                "properties": {}
            },
            {
                "species": [
                    {
                        "element": "O",
                        "occu": 1
                    }
                ],
                "abc": [
                    0.32641855,
                    0.96080528,
                    0.78867552
                ],
                "xyz": [
                    3.724655090370237,
                    6.164709767534157,
                    4.152933614886
                ],
                "label": "O",
                "properties": {}
            },
            {
                "species": [
                    {
                        "element": "O",
                        "occu": 1
                    }
                ],
                "abc": [
                    0.17358145,
                    0.46080528,
                    0.28867552
                ],
                "xyz": [
                    1.9806810346297623,
                    2.9566144875341567,
                    1.520080489886
                ],
                "label": "O",
                "properties": {}
            },
            {
                "species": [
                    {
                        "element": "O",
                        "occu": 1
                    }
                ],
                "abc": [
                    0.82641855,
                    0.96080528,
                    0.71132448
                ],
                "xyz": [
                    9.429991215370237,
                    6.164709767534157,
                    3.745625760114
                ],
                "label": "O",
                "properties": {}
            }
        ]
    },
    "spacegroup": {
        "source": "spglib",
        "symbol": "Pnma",
        "number": 62,
        "point_group": "mmm",
        "crystal_system": "orthorhombic",
        "hall": "-P 2ac 2n"
    },
    "dielectric": {
        "epsilon_ionic": [
            [
                5.94448494,
                -1e-08,
                5e-08
            ],
            [
                -1e-08,
                6.6247919,
                -6e-08
            ],
            [
                5e-08,
                -6e-08,
                4.40400355
            ]
        ],
        "epsilon_ionic_avg": 5.65776013,
        "epsilon_ionic_eig": [
            5.944484940000004,
            4.404003549999993,
            6.6247919
        ],
        "epsilon_electronic": [
            [
                3.40997978,
                0.0,
                0.0
            ],
            [
                0.0,
                3.26551197,
                0.0
            ],
            [
                0.0,
                -0.0,
                3.22441547
            ]
        ],
        "epsilon_electronic_avg": 3.299969073333333,
        "epsilon_electronic_eig": [
            3.40997978,
            3.26551197,
            3.22441547
        ]
    },
    "phonon": {
        "lowest_freq": -0.1025529092170594,
        "frequency": [
            -0.1025529092170594,
            -0.034470382789288066,
            -0.02413549398807019,
            2.163985408568302,
            2.36330361120522,
            2.5909229642601703,
            3.2221931222753675,
            3.3327758207696263,
            3.561817439576986,
            3.6520791976594436,
            3.7102610030453573,
            3.831641630208436,
            4.382034266475222,
            4.441880413438682,
            4.482241928349984,
            4.562403646134019,
            4.6596492119925,
            4.661408931780448,
            4.815297156310753,
            4.974537896134252,
            5.10829222399042,
            5.128401439237702,
            5.511893192705751,
            5.5204165851827645,
            5.679974190342445,
            5.681249731243034,
            5.849645411723956,
            5.925054704453985,
            5.928993233549685,
            6.00809140246808,
            6.245738057167254,
            6.846815333288082,
            6.852678655485192,
            7.241406051691711,
            7.259637293063626,
            7.297735237912705,
            7.301457038447254,
            7.511465072640852,
            7.629043335096578,
            7.928647021557569,
            8.019613050850824,
            8.12974943962081,
            8.302760018319361,
            8.641664934015232,
            8.718428700677208,
            8.99066841833746,
            9.029797887664285,
            9.094356836789547,
            9.108695710694061,
            9.597520364277612,
            10.646470529783727,
            10.661500997372464,
            10.662888553655854,
            10.801153930944043,
            11.13949138773221,
            11.193241510342466,
            11.373984315120763,
            11.731787316852497,
            11.769038173164821,
            12.008814442768715,
            12.189592627483842,
            12.273242425894939,
            12.414189850824592,
            13.189777485188275,
            13.299181648836335,
            13.386167285289874,
            14.904030095117628,
            15.810847003663682,
            19.031685469536583,
            19.051409293364326,
            19.05879974349758,
            19.08298493325372,
            20.715611912154202,
            20.86636207712761,
            21.479522333516925,
            21.511708153471325,
            22.430425868646058,
            22.66772374640941,
            22.781997828118495,
            22.919881908617764,
            23.047091699765044,
            23.15250456655131,
            23.52681230111224,
            24.790161509839667
        ]
    },
    "born_effective_charge": {
        "avg_abs_trace": 2.2595561904761907,
        "tensors": [
            [
                [
                    1.01944,
                    -0.15889,
                    -0.01006
                ],
                [
                    -0.09845,
                    0.95705,
                    0.0648
                ],
                [
                    0.01396,
                    0.02501,
                    1.17559
                ]
            ],
            [
                [
                    1.01944,
                    0.15889,
                    -0.01006
                ],
                [
                    0.09845,
                    0.95705,
                    -0.0648
                ],
                [
                    0.01396,
                    -0.02501,
                    1.17559
                ]
            ],
            [
                [
                    1.01944,
                    0.15889,
                    0.01006
                ],
                [
                    0.09845,
                    0.95705,
                    0.0648
                ],
                [
                    -0.01396,
                    0.02501,
                    1.17559
                ]
            ],
            [
                [
                    1.01944,
                    -0.15889,
                    0.01006
                ],
                [
                    -0.09845,
                    0.95705,
                    -0.0648
                ],
                [
                    -0.01396,
                    -0.02501,
                    1.17559
                ]
            ],
            [
                [
                    4.02735,
                    0.0,
                    -0.12943
                ],
                [
                    7e-05,
                    3.90544,
                    3e-05
                ],
                [
                    -0.10013,
                    0.0,
                    3.33119
                ]
            ],
            [
                [
                    4.02749,
                    0.0,
                    -0.12932
                ],
                [
                    -7e-05,
                    3.90544,
                    -3e-05
                ],
                [
                    -0.10033,
                    0.0,
                    3.33278
                ]
            ],
            [
                [
                    4.02735,
                    0.0,
                    0.12943
                ],
                [
                    7e-05,
                    3.90544,
                    -3e-05
                ],
                [
                    0.10033,
                    0.0,
                    3.33278
                ]
            ],
            [
                [
                    4.02749,
                    0.0,
                    0.12932
                ],
                [
                    -7e-05,
                    3.90544,
                    3e-05
                ],
                [
                    0.10013,
                    0.0,
                    3.33119
                ]
            ],
            [
                [
                    3.35483,
                    0.0,
                    0.19688
                ],
                [
                    -2e-05,
                    2.9888,
                    -4e-05
                ],
                [
                    -0.17342,
                    0.0,
                    2.9648
                ]
            ],
            [
                [
                    3.35483,
                    0.0,
                    -0.19688
                ],
                [
                    -2e-05,
                    2.9888,
                    4e-05
                ],
                [
                    0.17339,
                    0.0,
                    2.96478
                ]
            ],
            [
                [
                    3.35481,
                    0.0,
                    0.19714
                ],
                [
                    2e-05,
                    2.9888,
                    4e-05
                ],
                [
                    -0.17339,
                    0.0,
                    2.96478
                ]
            ],
            [
                [
                    3.35481,
                    0.0,
                    -0.19714
                ],
                [
                    2e-05,
                    2.9888,
                    -4e-05
                ],
                [
                    0.17342,
                    0.0,
                    2.9648
                ]
            ],
            [
                [
                    -1.87131,
                    0.0,
                    0.53058
                ],
                [
                    -8e-05,
                    -1.30264,
                    -2e-05
                ],
                [
                    0.63434,
                    0.0,
                    -2.43234
                ]
            ],
            [
                [
                    -1.87126,
                    0.0,
                    0.53059
                ],
                [
                    8e-05,
                    -1.30264,
                    2e-05
                ],
                [
                    0.6343,
                    0.0,
                    -2.43246
                ]
            ],
            [
                [
                    -1.87131,
                    0.0,
                    -0.53058
                ],
                [
                    -8e-05,
                    -1.30264,
                    2e-05
                ],
                [
                    -0.6343,
                    0.0,
                    -2.43246
                ]
            ],
            [
                [
                    -1.87126,
                    0.0,
                    -0.53059
                ],
                [
                    8e-05,
                    -1.30264,
                    -2e-05
                ],
                [
                    -0.63434,
                    0.0,
                    -2.43234
                ]
            ],
            [
                [
                    -3.15732,
                    0.0,
                    -0.06413
                ],
                [
                    8e-05,
                    -1.36275,
                    -1e-05
                ],
                [
                    -0.13801,
                    0.0,
                    -1.35467
                ]
            ],
            [
                [
                    -3.15709,
                    0.0,
                    -0.06396
                ],
                [
                    -8e-05,
                    -1.36275,
                    1e-05
                ],
                [
                    -0.13707,
                    0.0,
                    -1.3548
                ]
            ],
            [
                [
                    -3.15732,
                    0.0,
                    0.06413
                ],
                [
                    8e-05,
                    -1.36275,
                    1e-05
                ],
                [
                    0.13707,
                    0.0,
                    -1.3548
                ]
            ],
            [
                [
                    -3.15709,
                    0.0,
                    0.06396
                ],
                [
                    -8e-05,
                    -1.36275,
                    -1e-05
                ],
                [
                    0.13801,
                    0.0,
                    -1.35467
                ]
            ],
            [
                [
                    -1.68661,
                    -0.26488,
                    0.3296
                ],
                [
                    -0.3678,
                    -2.59291,
                    -0.37396
                ],
                [
                    0.40666,
                    -0.30629,
                    -1.84246
                ]
            ],
            [
                [
                    -1.68658,
                    0.26471,
                    0.32954
                ],
                [
                    0.3678,
                    -2.59291,
                    0.37396
                ],
                [
                    0.4067,
                    0.30607,
                    -1.84278
                ]
            ],
            [
                [
                    -1.68661,
                    -0.26488,
                    -0.3296
                ],
                [
                    -0.3678,
                    -2.59291,
                    0.37396
                ],
                [
                    -0.4067,
                    0.30607,
                    -1.84278
                ]
            ],
            [
                [
                    -1.68658,
                    0.26471,
                    -0.32954
                ],
                [
                    0.3678,
                    -2.59291,
                    -0.37396
                ],
                [
                    -0.40666,
                    -0.30629,
                    -1.84246
                ]
            ],
            [
                [
                    -1.68658,
                    -0.26471,
                    -0.32954
                ],
                [
                    -0.3679,
                    -2.59299,
                    0.37411
                ],
                [
                    -0.40666,
                    0.30629,
                    -1.84246
                ]
            ],
            [
                [
                    -1.68661,
                    0.26488,
                    -0.3296
                ],
                [
                    0.3679,
                    -2.59299,
                    -0.37411
                ],
                [
                    -0.4067,
                    -0.30607,
                    -1.84278
                ]
            ],
            [
                [
                    -1.68658,
                    -0.26471,
                    0.32954
                ],
                [
                    -0.3679,
                    -2.59299,
                    -0.37411
                ],
                [
                    0.4067,
                    -0.30607,
                    -1.84278
                ]
            ],
            [
                [
                    -1.68661,
                    0.26488,
                    0.3296
                ],
                [
                    0.3679,
                    -2.59299,
                    0.37411
                ],
                [
                    0.40666,
                    0.30629,
                    -1.84246
                ]
            ]
        ]
    },
    "band_gap": 3.5716,
    "is_direct": false,
    "formula": "NaYGeO4"
}