{
    "mp_id": "mp-14951",
    "nelements": 3,
    "nsites": 14,
    "elements": [
        "Al",
        "O",
        "Rb"
    ],
    "structure": {
        "@module": "pymatgen.core.structure",
        "@class": "Structure",
        "charge": null,
        "lattice": {
            "matrix": [
                [
                    3.61735725,
                    -5.69085052,
                    -0.00029103
                ],
                [
                    3.61735725,
                    5.69085052,
                    -0.00029103
                ],
                [
                    -1.64949714,
                    0.0,
                    6.53834403
                ]
            ],
            "a": 6.743222760654604,
            "b": 6.743222760654604,
            "c": 6.743202760521504,
            "alpha": 97.54267657789903,
            "beta": 97.54267657789903,
            "gamma": 115.116297086599,
            "volume": 269.18913629805576
        },
        "sites": [
            {
                "species": [
                    {
                        "element": "Rb",
                        "occu": 1
                    }
                ],
                "abc": [
                    0.37032078,
                    0.37032078,
                    0.65229875
                ],
                "xyz": [
                    1.603200194166735,
                    0.0,
                    4.264738088925756
                ],
                "label": "Rb",
                "properties": {}
            },
            {
                "species": [
                    {
                        "element": "Rb",
                        "occu": 1
                    }
                ],
                "abc": [
                    0.62967922,
                    0.62967922,
                    0.34770125
                ],
                "xyz": [
                    3.9820171658332653,
                    0.0,
                    2.2730238810742445
                ],
                "label": "Rb",
                "properties": {}
            },
            {
                "species": [
                    {
                        "element": "Rb",
                        "occu": 1
                    }
                ],
                "abc": [
                    0.19772218,
                    0.80227782,
                    0.5
                ],
                "xyz": [
                    2.79260868,
                    3.4404357782629322,
                    3.268880985
                ],
                "label": "Rb",
                "properties": {}
            },
            {
                "species": [
                    {
                        "element": "Rb",
                        "occu": 1
                    }
                ],
                "abc": [
                    0.80227782,
                    0.19772218,
                    0.5
                ],
                "xyz": [
                    2.79260868,
                    -3.4404357782629322,
                    3.268880985
                ],
                "label": "Rb",
                "properties": {}
            },
            {
                "species": [
                    {
                        "element": "Rb",
                        "occu": 1
                    }
                ],
                "abc": [
                    0.2664227,
                    0.7335773,
                    0.0
                ],
                "xyz": [
                    3.61735725,
                    2.6585069983303917,
                    -0.00029103
                ],
                "label": "Rb",
                "properties": {}
            },
            {
                "species": [
                    {
                        "element": "Rb",
                        "occu": 1
                    }
                ],
                "abc": [
                    0.7335773,
                    0.2664227,
                    0.0
                ],
                "xyz": [
                    3.61735725,
                    -2.6585069983303917,
                    -0.00029103
                ],
                "label": "Rb",
                "properties": {}
            },
            {
                "species": [
                    {
                        "element": "Al",
                        "occu": 1
                    }
                ],
                "abc": [
                    0.84222016,
                    0.84222016,
                    0.85369815
                ],
                "xyz": [
                    4.685049746896029,
                    0.0,
                    5.581281979808215
                ],
                "label": "Al",
                "properties": {}
            },
            {
                "species": [
                    {
                        "element": "Al",
                        "occu": 1
                    }
                ],
                "abc": [
                    0.15777984,
                    0.15777984,
                    0.14630185
                ],
                "xyz": [
                    0.9001676131039711,
                    0.0,
                    0.9564799901917852
                ],
                "label": "Al",
                "properties": {}
            },
            {
                "species": [
                    {
                        "element": "O",
                        "occu": 1
                    }
                ],
                "abc": [
                    0.85140468,
                    0.59616775,
                    0.73737199
                ],
                "xyz": [
                    4.020093635939509,
                    -1.4525152158137034,
                    4.820770461701416
                ],
                "label": "O",
                "properties": {}
            },
            {
                "species": [
                    {
                        "element": "O",
                        "occu": 1
                    }
                ],
                "abc": [
                    0.40383225,
                    0.14859532,
                    0.26262801
                ],
                "xyz": [
                    1.565123724060491,
                    -1.4525152158137034,
                    1.7169915082985834
                ],
                "label": "O",
                "properties": {}
            },
            {
                "species": [
                    {
                        "element": "O",
                        "occu": 1
                    }
                ],
                "abc": [
                    0.14859532,
                    0.40383225,
                    0.26262801
                ],
                "xyz": [
                    1.565123724060491,
                    1.4525152158137034,
                    1.7169915082985834
                ],
                "label": "O",
                "properties": {}
            },
            {
                "species": [
                    {
                        "element": "O",
                        "occu": 1
                    }
                ],
                "abc": [
                    0.59616775,
                    0.85140468,
                    0.73737199
                ],
                "xyz": [
                    4.020093635939509,
                    1.4525152158137034,
                    4.820770461701416
                ],
                "label": "O",
                "properties": {}
            },
            {
                "species": [
                    {
                        "element": "O",
                        "occu": 1
                    }
                ],
                "abc": [
                    0.90126125,
                    0.90126125,
                    0.13539883
                ],
                "xyz": [
                    6.297027850818779,
                    0.0,
                    0.8847595436763099
                ],
                "label": "O",
                "properties": {}
            },
            {
                "species": [
                    {
                        "element": "O",
                        "occu": 1
                    }
                ],
                "abc": [
                    0.09873875,
                    0.09873875,
                    0.86460117
                ],
                "xyz": [
                    -0.7118104908187789,
                    0.0,
                    5.653002426323691
                ],
                "label": "O",
                "properties": {}
            }
        ]
    },
    "spacegroup": {
        "source": "spglib",
        "symbol": "C2/m",
        "number": 12,
        "point_group": "2/m",
        "crystal_system": "monoclinic",
        "hall": "-C 2y"
    },
    "dielectric": {
        "epsilon_ionic": [
            [
                5.68186814,
                0.0,
                -0.59131478
            ],
            [
                0.0,
                7.75869411,
                -0.0
            ],
            [
                -0.59131478,
                -0.0,
                5.99855032
            ]
        ],
        "epsilon_ionic_avg": 6.47970419,
        "epsilon_ionic_eig": [
            5.228061315008176,
            6.452357144991823,
            7.75869411
        ],
        "epsilon_electronic": [
            [
                2.99058424,
                0.0,
                0.0555123
            ],
            [
                0.0,
                2.98588902,
                0.0
            ],
            [
                0.055511,
                0.0,
                3.00023166
            ]
        ],
        "epsilon_electronic_avg": 2.9922349733333333,
        "epsilon_electronic_eig": [
            2.9396871149069748,
            3.051128785093025,
            2.98588902
        ]
    },
    "phonon": {
        "lowest_freq": -0.027311838103619073,
        "frequency": [
            -0.027311838103619073,
            -0.017522808784774774,
            -0.011980889503530778,
            1.3213960768041533,
            1.3890350340856363,
            1.8159044424405728,
            2.1363393966330753,
            2.173957470880724,
            2.218532330295029,
            2.3428920111434937,
            2.5424566796434833,
            2.64348900090969,
            2.707647983418184,
            2.8142695925345906,
            2.9037958831333284,
            3.3844746432096375,
            3.4897137864281498,
            3.595589860545603,
            3.7118939813411487,
            4.202587458605355,
            4.29442612188091,
            4.6556391484580475,
            4.809391836809628,
            5.304218679043377,
            5.956428185617731,
            6.6458366410818375,
            7.2567352927736835,
            8.912839758618091,
            9.11975978267344,
            9.40941763378438,
            9.952856012861792,
            11.142944116503998,
            12.089794609845567,
            13.653130135328642,
            14.978428428218814,
            17.57109100639255,
            18.094478634015342,
            18.716874176129657,
            19.728293253663953,
            20.968940513183718,
            21.24521343448622,
            21.68789758987755
        ]
    },
    "born_effective_charge": {
        "avg_abs_trace": 1.6175014285714286,
        "tensors": [
            [
                [
                    1.34651,
                    0.0,
                    -0.05836
                ],
                [
                    4e-05,
                    1.02657,
                    5e-05
                ],
                [
                    -0.05179,
                    0.0,
                    1.19727
                ]
            ],
            [
                [
                    1.3465,
                    0.0,
                    -0.05845
                ],
                [
                    -4e-05,
                    1.02657,
                    -5e-05
                ],
                [
                    -0.05169,
                    0.0,
                    1.19722
                ]
            ],
            [
                [
                    1.16142,
                    7e-05,
                    -0.02656
                ],
                [
                    0.0,
                    1.2397,
                    0.0
                ],
                [
                    -0.04106,
                    -4e-05,
                    1.24703
                ]
            ],
            [
                [
                    1.16142,
                    -7e-05,
                    -0.02656
                ],
                [
                    0.0,
                    1.23974,
                    0.0
                ],
                [
                    -0.04106,
                    4e-05,
                    1.24703
                ]
            ],
            [
                [
                    1.22301,
                    4e-05,
                    -0.01105
                ],
                [
                    0.0,
                    1.18672,
                    0.0
                ],
                [
                    0.01085,
                    -6e-05,
                    1.10327
                ]
            ],
            [
                [
                    1.22301,
                    -4e-05,
                    -0.01105
                ],
                [
                    0.0,
                    1.18666,
                    0.0
                ],
                [
                    0.01085,
                    6e-05,
                    1.10327
                ]
            ],
            [
                [
                    1.97427,
                    0.0,
                    0.53299
                ],
                [
                    -2e-05,
                    2.13653,
                    2e-05
                ],
                [
                    0.55949,
                    0.0,
                    2.14149
                ]
            ],
            [
                [
                    1.97425,
                    0.0,
                    0.53295
                ],
                [
                    2e-05,
                    2.13653,
                    -2e-05
                ],
                [
                    0.55954,
                    0.0,
                    2.14155
                ]
            ],
            [
                [
                    -1.81183,
                    -0.12694,
                    -0.2424
                ],
                [
                    -0.15488,
                    -2.07783,
                    -0.13154
                ],
                [
                    -0.23572,
                    -0.12649,
                    -1.80752
                ]
            ],
            [
                [
                    -1.81185,
                    0.12689,
                    -0.24241
                ],
                [
                    0.15488,
                    -2.07783,
                    0.13154
                ],
                [
                    -0.23569,
                    0.12656,
                    -1.80755
                ]
            ],
            [
                [
                    -1.81185,
                    -0.12689,
                    -0.24241
                ],
                [
                    -0.15491,
                    -2.07788,
                    -0.1315
                ],
                [
                    -0.23569,
                    -0.12656,
                    -1.80755
                ]
            ],
            [
                [
                    -1.81183,
                    0.12694,
                    -0.2424
                ],
                [
                    0.15491,
                    -2.07788,
                    0.1315
                ],
                [
                    -0.23572,
                    0.12649,
                    -1.80752
                ]
            ],
            [
                [
                    -2.08153,
                    0.0,
                    0.04784
                ],
                [
                    -1e-05,
                    -1.43379,
                    -4e-05
                ],
                [
                    -0.00609,
                    0.0,
                    -2.07397
                ]
            ],
            [
                [
                    -2.0815,
                    0.0,
                    0.04788
                ],
                [
                    1e-05,
                    -1.43379,
                    4e-05
                ],
                [
                    -0.00621,
                    0.0,
                    -2.07402
                ]
            ]
        ]
    },
    "band_gap": 2.8243,
    "is_direct": true,
    "formula": "Rb3AlO3"
}