{
    "mp_id": "mp-17854",
    "nelements": 4,
    "nsites": 28,
    "elements": [
        "Ge",
        "In",
        "Li",
        "O"
    ],
    "structure": {
        "@module": "pymatgen.core.structure",
        "@class": "Structure",
        "charge": null,
        "lattice": {
            "matrix": [
                [
                    10.84917156,
                    0.0,
                    0.0
                ],
                [
                    0.0,
                    6.11433532,
                    0.0
                ],
                [
                    0.0,
                    0.0,
                    5.0449892
                ]
            ],
            "a": 10.84917156,
            "b": 6.11433532,
            "c": 5.0449892,
            "alpha": 90.0,
            "beta": 90.0,
            "gamma": 90.0,
            "volume": 334.66174416592276
        },
        "sites": [
            {
                "species": [
                    {
                        "element": "Li",
                        "occu": 1
                    }
                ],
                "abc": [
                    0.0,
                    0.0,
                    0.0
                ],
                "xyz": [
                    0.0,
                    0.0,
                    0.0
                ],
                "label": "Li",
                "properties": {}
            },
            {
                "species": [
                    {
                        "element": "Li",
                        "occu": 1
                    }
                ],
                "abc": [
                    0.5,
                    0.0,
                    0.5
                ],
                "xyz": [
                    5.42458578,
                    0.0,
                    2.5224946
                ],
                "label": "Li",
                "properties": {}
            },
            {
                "species": [
                    {
                        "element": "Li",
                        "occu": 1
                    }
                ],
                "abc": [
                    0.0,
                    0.5,
                    0.0
                ],
                "xyz": [
                    0.0,
                    3.05716766,
                    0.0
                ],
                "label": "Li",
                "properties": {}
            },
            {
                "species": [
                    {
                        "element": "Li",
                        "occu": 1
                    }
                ],
                "abc": [
                    0.5,
                    0.5,
                    0.5
                ],
                "xyz": [
                    5.42458578,
                    3.05716766,
                    2.5224946
                ],
                "label": "Li",
                "properties": {}
            },
            {
                "species": [
                    {
                        "element": "In",
                        "occu": 1
                    }
                ],
                "abc": [
                    0.27074809,
                    0.75,
                    0.00531255
                ],
                "xyz": [
                    2.9373924779523204,
                    4.58575149,
                    0.02680175737446
                ],
                "label": "In",
                "properties": {}
            },
            {
                "species": [
                    {
                        "element": "In",
                        "occu": 1
                    }
                ],
                "abc": [
                    0.77074809,
                    0.75,
                    0.49468745
                ],
                "xyz": [
                    8.361978257952321,
                    4.58575149,
                    2.4956928426255396
                ],
                "label": "In",
                "properties": {}
            },
            {
                "species": [
                    {
                        "element": "In",
                        "occu": 1
                    }
                ],
                "abc": [
                    0.72925191,
                    0.25,
                    0.99468745
                ],
                "xyz": [
                    7.91177908204768,
                    1.52858383,
                    5.01818744262554
                ],
                "label": "In",
                "properties": {}
            },
            {
                "species": [
                    {
                        "element": "In",
                        "occu": 1
                    }
                ],
                "abc": [
                    0.22925191,
                    0.25,
                    0.50531255
                ],
                "xyz": [
                    2.4871933020476797,
                    1.52858383,
                    2.54929635737446
                ],
                "label": "In",
                "properties": {}
            },
            {
                "species": [
                    {
                        "element": "Ge",
                        "occu": 1
                    }
                ],
                "abc": [
                    0.08548537,
                    0.75,
                    0.55769563
                ],
                "xyz": [
                    0.9274454450000773,
                    4.58575149,
                    2.8135684302371957
                ],
                "label": "Ge",
                "properties": {}
            },
            {
                "species": [
                    {
                        "element": "Ge",
                        "occu": 1
                    }
                ],
                "abc": [
                    0.58548537,
                    0.75,
                    0.94230437
                ],
                "xyz": [
                    6.352031225000077,
                    4.58575149,
                    4.753915369762804
                ],
                "label": "Ge",
                "properties": {}
            },
            {
                "species": [
                    {
                        "element": "Ge",
                        "occu": 1
                    }
                ],
                "abc": [
                    0.91451463,
                    0.25,
                    0.44230437
                ],
                "xyz": [
                    9.921726114999924,
                    1.52858383,
                    2.231420769762804
                ],
                "label": "Ge",
                "properties": {}
            },
            {
                "species": [
                    {
                        "element": "Ge",
                        "occu": 1
                    }
                ],
                "abc": [
                    0.41451463,
                    0.25,
                    0.05769563
                ],
                "xyz": [
                    4.497140334999923,
                    1.52858383,
                    0.29107383023719596
                ],
                "label": "Ge",
                "properties": {}
            },
            {
                "species": [
                    {
                        "element": "O",
                        "occu": 1
                    }
                ],
                "abc": [
                    0.66515625,
                    0.52994196,
                    0.77008901
                ],
                "xyz": [
                    7.2163942704562505,
                    3.2402428435780277,
                    3.885090738488692
                ],
                "label": "O",
                "properties": {}
            },
            {
                "species": [
                    {
                        "element": "O",
                        "occu": 1
                    }
                ],
                "abc": [
                    0.33484375,
                    0.47005804,
                    0.22991099
                ],
                "xyz": [
                    3.6327772895437502,
                    2.874092476421973,
                    1.159898461511308
                ],
                "label": "O",
                "properties": {}
            },
            {
                "species": [
                    {
                        "element": "O",
                        "occu": 1
                    }
                ],
                "abc": [
                    0.16515625,
                    0.52994196,
                    0.72991099
                ],
                "xyz": [
                    1.7918084904562501,
                    3.2402428435780277,
                    3.682393061511308
                ],
                "label": "O",
                "properties": {}
            },
            {
                "species": [
                    {
                        "element": "O",
                        "occu": 1
                    }
                ],
                "abc": [
                    0.66515625,
                    0.97005804,
                    0.77008901
                ],
                "xyz": [
                    7.2163942704562505,
                    5.931260136421973,
                    3.885090738488692
                ],
                "label": "O",
                "properties": {}
            },
            {
                "species": [
                    {
                        "element": "O",
                        "occu": 1
                    }
                ],
                "abc": [
                    0.83484375,
                    0.02994196,
                    0.27008901
                ],
                "xyz": [
                    9.05736306954375,
                    0.1830751835780272,
                    1.362596138488692
                ],
                "label": "O",
                "properties": {}
            },
            {
                "species": [
                    {
                        "element": "O",
                        "occu": 1
                    }
                ],
                "abc": [
                    0.9084653,
                    0.25,
                    0.79067095
                ],
                "xyz": [
                    9.856095896006869,
                    1.52858383,
                    3.98892640350374
                ],
                "label": "O",
                "properties": {}
            },
            {
                "species": [
                    {
                        "element": "O",
                        "occu": 1
                    }
                ],
                "abc": [
                    0.83484375,
                    0.47005804,
                    0.27008901
                ],
                "xyz": [
                    9.05736306954375,
                    2.874092476421973,
                    1.362596138488692
                ],
                "label": "O",
                "properties": {}
            },
            {
                "species": [
                    {
                        "element": "O",
                        "occu": 1
                    }
                ],
                "abc": [
                    0.33484375,
                    0.02994196,
                    0.22991099
                ],
                "xyz": [
                    3.6327772895437502,
                    0.1830751835780272,
                    1.159898461511308
                ],
                "label": "O",
                "properties": {}
            },
            {
                "species": [
                    {
                        "element": "O",
                        "occu": 1
                    }
                ],
                "abc": [
                    0.0915347,
                    0.75,
                    0.20932905
                ],
                "xyz": [
                    0.993075663993132,
                    4.58575149,
                    1.05606279649626
                ],
                "label": "O",
                "properties": {}
            },
            {
                "species": [
                    {
                        "element": "O",
                        "occu": 1
                    }
                ],
                "abc": [
                    0.4084653,
                    0.25,
                    0.70932905
                ],
                "xyz": [
                    4.4315101160068675,
                    1.52858383,
                    3.57855739649626
                ],
                "label": "O",
                "properties": {}
            },
            {
                "species": [
                    {
                        "element": "O",
                        "occu": 1
                    }
                ],
                "abc": [
                    0.43935904,
                    0.75,
                    0.78297191
                ],
                "xyz": [
                    4.766681601396902,
                    4.58575149,
                    3.9500848298533717
                ],
                "label": "O",
                "properties": {}
            },
            {
                "species": [
                    {
                        "element": "O",
                        "occu": 1
                    }
                ],
                "abc": [
                    0.5915347,
                    0.75,
                    0.29067095
                ],
                "xyz": [
                    6.417661443993132,
                    4.58575149,
                    1.4664318035037398
                ],
                "label": "O",
                "properties": {}
            },
            {
                "species": [
                    {
                        "element": "O",
                        "occu": 1
                    }
                ],
                "abc": [
                    0.93935904,
                    0.75,
                    0.71702809
                ],
                "xyz": [
                    10.191267381396903,
                    4.58575149,
                    3.617398970146628
                ],
                "label": "O",
                "properties": {}
            },
            {
                "species": [
                    {
                        "element": "O",
                        "occu": 1
                    }
                ],
                "abc": [
                    0.06064096,
                    0.25,
                    0.28297191
                ],
                "xyz": [
                    0.6579041786030976,
                    1.52858383,
                    1.427590229853372
                ],
                "label": "O",
                "properties": {}
            },
            {
                "species": [
                    {
                        "element": "O",
                        "occu": 1
                    }
                ],
                "abc": [
                    0.56064096,
                    0.25,
                    0.21702809
                ],
                "xyz": [
                    6.082489958603097,
                    1.52858383,
                    1.094904370146628
                ],
                "label": "O",
                "properties": {}
            },
            {
                "species": [
                    {
                        "element": "O",
                        "occu": 1
                    }
                ],
                "abc": [
                    0.16515625,
                    0.97005804,
                    0.72991099
                ],
                "xyz": [
                    1.7918084904562501,
                    5.931260136421973,
                    3.682393061511308
                ],
                "label": "O",
                "properties": {}
            }
        ]
    },
    "spacegroup": {
        "source": "spglib",
        "symbol": "Pnma",
        "number": 62,
        "point_group": "mmm",
        "crystal_system": "orthorhombic",
        "hall": "-P 2ac 2n"
    },
    "dielectric": {
        "epsilon_ionic": [
            [
                6.28068084,
                1e-08,
                -1e-08
            ],
            [
                1e-08,
                7.95115086,
                -2e-08
            ],
            [
                -1e-08,
                -2e-08,
                4.95203647
            ]
        ],
        "epsilon_ionic_avg": 6.394622723333335,
        "epsilon_ionic_eig": [
            6.28068084,
            7.951150860000003,
            4.9520364699999995
        ],
        "epsilon_electronic": [
            [
                3.77177432,
                0.0,
                0.0
            ],
            [
                0.0,
                3.65896111,
                0.0
            ],
            [
                0.0,
                -0.0,
                3.70777537
            ]
        ],
        "epsilon_electronic_avg": 3.7128369333333335,
        "epsilon_electronic_eig": [
            3.77177432,
            3.65896111,
            3.70777537
        ]
    },
    "phonon": {
        "lowest_freq": -0.0739252667598019,
        "frequency": [
            -0.0739252667598019,
            -0.0734728942139352,
            -0.022516235555056833,
            2.21710962047681,
            2.227379987437415,
            2.482309803974209,
            3.2373188913386963,
            3.570206480220446,
            3.5978170545753865,
            3.6445409653012977,
            3.675926332383115,
            3.8944875920367514,
            4.065754540284058,
            4.121469976352142,
            4.156901786612255,
            4.661947055523092,
            4.669871865225822,
            4.87518761298681,
            4.93208995645745,
            4.992417609846363,
            5.29520399646053,
            5.474017025077746,
            5.510754787853323,
            5.548350524816038,
            5.772838095570408,
            5.81397665082942,
            6.046110436177151,
            6.149000035516089,
            6.820175056460245,
            7.01896875338192,
            7.066602238597003,
            7.151890903939051,
            7.453931704148217,
            7.918310674378245,
            7.918848173348818,
            8.067856217355441,
            8.373364484921211,
            8.615177535883664,
            9.138719343486704,
            9.216728391365349,
            9.239523742100314,
            9.266130652090215,
            9.492141006273544,
            9.779634979626122,
            10.466939004563171,
            10.728758879301832,
            10.86883390296343,
            11.064421033232094,
            11.30946867733703,
            11.551152944753929,
            11.553712438852607,
            11.791137236983893,
            12.016494774453784,
            12.083718453905938,
            12.241544075880423,
            12.580011510591468,
            12.694924036307711,
            12.804595572100105,
            13.117603419046137,
            14.052975308814899,
            14.253695963975254,
            14.299882672644937,
            14.316130175303172,
            14.40368683347523,
            15.355880302158946,
            15.49393839844779,
            15.948677888626941,
            16.4151287922129,
            19.038570034440863,
            19.040372792180925,
            19.71254428004019,
            19.774410134671072,
            20.800567200045215,
            20.983666002432397,
            21.653872323166734,
            22.03533409916486,
            22.581149500966635,
            22.585457694756645,
            22.645005449899337,
            22.693402256644845,
            23.245750831123583,
            23.527498116993215,
            23.735045181585363,
            24.593854830239273
        ]
    },
    "born_effective_charge": {
        "avg_abs_trace": 2.1931507142857143,
        "tensors": [
            [
                [
                    1.0043,
                    -0.21805,
                    -4e-05
                ],
                [
                    -0.12829,
                    1.07317,
                    0.09874
                ],
                [
                    0.08052,
                    0.04993,
                    1.31034
                ]
            ],
            [
                [
                    1.0043,
                    -0.21805,
                    4e-05
                ],
                [
                    -0.12829,
                    1.07317,
                    -0.09874
                ],
                [
                    -0.08052,
                    -0.04993,
                    1.31034
                ]
            ],
            [
                [
                    1.0043,
                    0.21805,
                    -4e-05
                ],
                [
                    0.12829,
                    1.07317,
                    -0.09874
                ],
                [
                    0.08052,
                    -0.04993,
                    1.31034
                ]
            ],
            [
                [
                    1.0043,
                    0.21805,
                    4e-05
                ],
                [
                    0.12829,
                    1.07317,
                    0.09874
                ],
                [
                    -0.08052,
                    0.04993,
                    1.31034
                ]
            ],
            [
                [
                    3.65829,
                    0.0,
                    0.02935
                ],
                [
                    7e-05,
                    3.48257,
                    2e-05
                ],
                [
                    0.1038,
                    0.0,
                    3.21057
                ]
            ],
            [
                [
                    3.65829,
                    0.0,
                    -0.02935
                ],
                [
                    7e-05,
                    3.48257,
                    -2e-05
                ],
                [
                    -0.10388,
                    0.0,
                    3.21062
                ]
            ],
            [
                [
                    3.65836,
                    0.0,
                    0.02928
                ],
                [
                    -7e-05,
                    3.48257,
                    -2e-05
                ],
                [
                    0.10388,
                    0.0,
                    3.21062
                ]
            ],
            [
                [
                    3.65836,
                    0.0,
                    -0.02928
                ],
                [
                    -7e-05,
                    3.48257,
                    2e-05
                ],
                [
                    -0.1038,
                    0.0,
                    3.21057
                ]
            ],
            [
                [
                    3.1926,
                    0.0,
                    -0.18841
                ],
                [
                    -0.00025,
                    3.04269,
                    -0.00018
                ],
                [
                    0.33208,
                    0.0,
                    3.05367
                ]
            ],
            [
                [
                    3.1926,
                    0.0,
                    0.18841
                ],
                [
                    -0.00025,
                    3.04269,
                    0.00018
                ],
                [
                    -0.33213,
                    0.0,
                    3.05333
                ]
            ],
            [
                [
                    3.19259,
                    0.0,
                    -0.18842
                ],
                [
                    0.00025,
                    3.04269,
                    0.00018
                ],
                [
                    0.33213,
                    0.0,
                    3.05333
                ]
            ],
            [
                [
                    3.19259,
                    0.0,
                    0.18842
                ],
                [
                    0.00025,
                    3.04269,
                    -0.00018
                ],
                [
                    -0.33208,
                    0.0,
                    3.05367
                ]
            ],
            [
                [
                    -1.79065,
                    0.29189,
                    0.30432
                ],
                [
                    0.41802,
                    -2.3745,
                    0.12432
                ],
                [
                    0.30737,
                    0.19316,
                    -1.81172
                ]
            ],
            [
                [
                    -1.79062,
                    0.29192,
                    0.3043
                ],
                [
                    0.41784,
                    -2.37431,
                    0.12437
                ],
                [
                    0.30736,
                    0.19295,
                    -1.81147
                ]
            ],
            [
                [
                    -1.79065,
                    0.29189,
                    -0.30432
                ],
                [
                    0.41802,
                    -2.3745,
                    -0.12432
                ],
                [
                    -0.30736,
                    -0.19295,
                    -1.81147
                ]
            ],
            [
                [
                    -1.79065,
                    -0.29189,
                    0.30432
                ],
                [
                    -0.41784,
                    -2.37431,
                    -0.12437
                ],
                [
                    0.30737,
                    -0.19316,
                    -1.81172
                ]
            ],
            [
                [
                    -1.79062,
                    -0.29192,
                    -0.3043
                ],
                [
                    -0.41802,
                    -2.3745,
                    0.12432
                ],
                [
                    -0.30737,
                    0.19316,
                    -1.81172
                ]
            ],
            [
                [
                    -1.63866,
                    0.0,
                    0.31197
                ],
                [
                    0.00023,
                    -1.38536,
                    -0.00011
                ],
                [
                    0.36025,
                    0.0,
                    -2.44042
                ]
            ],
            [
                [
                    -1.79062,
                    0.29192,
                    -0.3043
                ],
                [
                    0.41784,
                    -2.37431,
                    -0.12437
                ],
                [
                    -0.30737,
                    -0.19316,
                    -1.81172
                ]
            ],
            [
                [
                    -1.79062,
                    -0.29192,
                    0.3043
                ],
                [
                    -0.41802,
                    -2.3745,
                    -0.12432
                ],
                [
                    0.30736,
                    -0.19295,
                    -1.81147
                ]
            ],
            [
                [
                    -1.63888,
                    0.0,
                    0.31186
                ],
                [
                    -0.00023,
                    -1.38536,
                    0.00011
                ],
                [
                    0.36038,
                    0.0,
                    -2.4406
                ]
            ],
            [
                [
                    -1.63866,
                    0.0,
                    -0.31197
                ],
                [
                    0.00023,
                    -1.38536,
                    0.00011
                ],
                [
                    -0.36038,
                    0.0,
                    -2.4406
                ]
            ],
            [
                [
                    -2.63516,
                    0.0,
                    -0.0625
                ],
                [
                    0.00013,
                    -1.46425,
                    -8e-05
                ],
                [
                    0.12871,
                    0.0,
                    -1.51068
                ]
            ],
            [
                [
                    -1.63888,
                    0.0,
                    -0.31186
                ],
                [
                    -0.00023,
                    -1.38536,
                    -0.00011
                ],
                [
                    -0.36025,
                    0.0,
                    -2.44042
                ]
            ],
            [
                [
                    -2.63516,
                    0.0,
                    0.0625
                ],
                [
                    0.00013,
                    -1.46425,
                    8e-05
                ],
                [
                    -0.12869,
                    0.0,
                    -1.51079
                ]
            ],
            [
                [
                    -2.63521,
                    0.0,
                    0.06259
                ],
                [
                    -0.00013,
                    -1.46425,
                    -8e-05
                ],
                [
                    -0.12871,
                    0.0,
                    -1.51068
                ]
            ],
            [
                [
                    -2.63521,
                    0.0,
                    -0.06259
                ],
                [
                    -0.00013,
                    -1.46425,
                    8e-05
                ],
                [
                    0.12869,
                    0.0,
                    -1.51079
                ]
            ],
            [
                [
                    -1.79065,
                    -0.29189,
                    -0.30432
                ],
                [
                    -0.41784,
                    -2.37431,
                    0.12437
                ],
                [
                    -0.30736,
                    0.19295,
                    -1.81147
                ]
            ]
        ]
    },
    "band_gap": 2.1926,
    "is_direct": true,
    "formula": "LiInGeO4"
}