{
    "mp_id": "mp-1209489",
    "nelements": 3,
    "nsites": 14,
    "elements": [
        "O",
        "Pb",
        "Rb"
    ],
    "structure": {
        "@module": "pymatgen.core.structure",
        "@class": "Structure",
        "charge": null,
        "lattice": {
            "matrix": [
                [
                    -4.36205747,
                    4.36205747,
                    4.36205747
                ],
                [
                    4.36205747,
                    -4.36205747,
                    4.36205747
                ],
                [
                    4.36205747,
                    4.36205747,
                    -4.36205747
                ]
            ],
            "a": 7.555305163575353,
            "b": 7.555305163575353,
            "c": 7.555305163575353,
            "alpha": 109.47122063449069,
            "beta": 109.47122063449069,
            "gamma": 109.47122063449069,
            "volume": 331.9969856955067
        },
        "sites": [
            {
                "species": [
                    {
                        "element": "Rb",
                        "occu": 1
                    }
                ],
                "abc": [
                    0.46376993,
                    0.46376993,
                    0.46376993
                ],
                "xyz": [
                    2.022991087517877,
                    2.022991087517877,
                    2.022991087517877
                ],
                "label": "Rb",
                "properties": {}
            },
            {
                "species": [
                    {
                        "element": "Rb",
                        "occu": 1
                    }
                ],
                "abc": [
                    0.03623007,
                    0.5,
                    0.0
                ],
                "xyz": [
                    2.022991087517877,
                    -2.022991087517877,
                    2.3390663824821227
                ],
                "label": "Rb",
                "properties": {}
            },
            {
                "species": [
                    {
                        "element": "Rb",
                        "occu": 1
                    }
                ],
                "abc": [
                    0.0,
                    0.03623007,
                    0.5
                ],
                "xyz": [
                    2.3390663824821227,
                    2.022991087517877,
                    -2.022991087517877
                ],
                "label": "Rb",
                "properties": {}
            },
            {
                "species": [
                    {
                        "element": "Rb",
                        "occu": 1
                    }
                ],
                "abc": [
                    0.5,
                    0.0,
                    0.03623007
                ],
                "xyz": [
                    -2.022991087517877,
                    2.3390663824821227,
                    2.022991087517877
                ],
                "label": "Rb",
                "properties": {}
            },
            {
                "species": [
                    {
                        "element": "Pb",
                        "occu": 1
                    }
                ],
                "abc": [
                    0.99989031,
                    0.99989031,
                    0.99989031
                ],
                "xyz": [
                    4.3615789959161155,
                    4.3615789959161155,
                    4.3615789959161155
                ],
                "label": "Pb",
                "properties": {}
            },
            {
                "species": [
                    {
                        "element": "Pb",
                        "occu": 1
                    }
                ],
                "abc": [
                    0.50010969,
                    0.5,
                    0.0
                ],
                "xyz": [
                    -0.0004784740838843504,
                    0.0004784740838843504,
                    4.362535944083884
                ],
                "label": "Pb",
                "properties": {}
            },
            {
                "species": [
                    {
                        "element": "Pb",
                        "occu": 1
                    }
                ],
                "abc": [
                    0.0,
                    0.50010969,
                    0.5
                ],
                "xyz": [
                    4.362535944083884,
                    -0.0004784740838843504,
                    0.0004784740838843504
                ],
                "label": "Pb",
                "properties": {}
            },
            {
                "species": [
                    {
                        "element": "Pb",
                        "occu": 1
                    }
                ],
                "abc": [
                    0.5,
                    0.0,
                    0.50010969
                ],
                "xyz": [
                    0.0004784740838843504,
                    4.362535944083884,
                    -0.0004784740838843504
                ],
                "label": "Pb",
                "properties": {}
            },
            {
                "species": [
                    {
                        "element": "O",
                        "occu": 1
                    }
                ],
                "abc": [
                    0.21997206,
                    0.96997206,
                    0.25
                ],
                "xyz": [
                    4.36205747,
                    -2.1810287350000004,
                    4.100090270028576
                ],
                "label": "O",
                "properties": {}
            },
            {
                "species": [
                    {
                        "element": "O",
                        "occu": 1
                    }
                ],
                "abc": [
                    0.28002794,
                    0.53002794,
                    0.75
                ],
                "xyz": [
                    4.36205747,
                    2.181028735,
                    0.2619671999714237
                ],
                "label": "O",
                "properties": {}
            },
            {
                "species": [
                    {
                        "element": "O",
                        "occu": 1
                    }
                ],
                "abc": [
                    0.96997206,
                    0.25,
                    0.21997206
                ],
                "xyz": [
                    -2.1810287350000004,
                    4.100090270028577,
                    4.36205747
                ],
                "label": "O",
                "properties": {}
            },
            {
                "species": [
                    {
                        "element": "O",
                        "occu": 1
                    }
                ],
                "abc": [
                    0.53002794,
                    0.75,
                    0.28002794
                ],
                "xyz": [
                    2.181028735,
                    0.2619671999714235,
                    4.362057470000001
                ],
                "label": "O",
                "properties": {}
            },
            {
                "species": [
                    {
                        "element": "O",
                        "occu": 1
                    }
                ],
                "abc": [
                    0.25,
                    0.21997206,
                    0.96997206
                ],
                "xyz": [
                    4.100090270028577,
                    4.36205747,
                    -2.1810287350000004
                ],
                "label": "O",
                "properties": {}
            },
            {
                "species": [
                    {
                        "element": "O",
                        "occu": 1
                    }
                ],
                "abc": [
                    0.75,
                    0.28002794,
                    0.53002794
                ],
                "xyz": [
                    0.26196719997142326,
                    4.36205747,
                    2.1810287349999995
                ],
                "label": "O",
                "properties": {}
            }
        ]
    },
    "spacegroup": {
        "source": "spglib",
        "symbol": "I2_13",
        "number": 199,
        "point_group": "23",
        "crystal_system": "cubic",
        "hall": "I 2b 2c 3"
    },
    "dielectric": {
        "epsilon_ionic": [
            [
                4.69246281,
                -2e-08,
                2e-08
            ],
            [
                -2e-08,
                4.69238444,
                1e-08
            ],
            [
                2e-08,
                1e-08,
                4.69241168
            ]
        ],
        "epsilon_ionic_avg": 4.692419643333334,
        "epsilon_ionic_eig": [
            4.692462810012928,
            4.692384439991223,
            4.692411679995854
        ],
        "epsilon_electronic": [
            [
                4.88433929,
                0.0,
                0.0
            ],
            [
                0.0,
                4.88433929,
                -0.0
            ],
            [
                0.0,
                0.0,
                4.88433929
            ]
        ],
        "epsilon_electronic_avg": 4.88433929,
        "epsilon_electronic_eig": [
            4.88433929,
            4.88433929,
            4.88433929
        ]
    },
    "phonon": {
        "lowest_freq": -0.031775964374229845,
        "frequency": [
            -0.031775964374229845,
            -0.031775964374229845,
            -0.031775964374229845,
            1.6149476627341306,
            1.6149476627341306,
            1.6149476627341306,
            2.014838908922404,
            2.014838908922404,
            2.014838908922404,
            2.2606742833475684,
            2.2606742833475684,
            2.2606742833475684,
            2.326937086114468,
            2.326937086114468,
            2.3410991679218256,
            2.708885042572259,
            2.708885042572259,
            2.708885042572259,
            3.4805451036555883,
            3.4805451036555883,
            3.4805451036555883,
            4.016801964055237,
            4.016801964055237,
            4.2757729218387475,
            4.523121896820918,
            4.523121896820918,
            4.523121896820918,
            5.150060670796846,
            5.150060670796846,
            5.150060670796846,
            5.56693024839358,
            5.56693024839358,
            5.834755817834166,
            7.531216361868248,
            7.531216361868248,
            7.531216361868248,
            14.032665594883582,
            14.032665594883582,
            14.032665594883582,
            17.829703141274102,
            17.829703141274102,
            17.829703141274102
        ]
    },
    "born_effective_charge": {
        "avg_abs_trace": 1.996990952380952,
        "tensors": [
            [
                [
                    1.17017,
                    -0.05004,
                    -0.03776
                ],
                [
                    -0.03776,
                    1.17016,
                    -0.05002
                ],
                [
                    -0.04997,
                    -0.03778,
                    1.17012
                ]
            ],
            [
                [
                    1.17017,
                    0.05004,
                    0.03776
                ],
                [
                    0.03779,
                    1.17011,
                    -0.04997
                ],
                [
                    0.05002,
                    -0.03776,
                    1.17016
                ]
            ],
            [
                [
                    1.17013,
                    0.04995,
                    -0.03778
                ],
                [
                    0.03776,
                    1.17016,
                    0.05002
                ],
                [
                    -0.05002,
                    0.03776,
                    1.17016
                ]
            ],
            [
                [
                    1.17013,
                    -0.04995,
                    0.03778
                ],
                [
                    -0.03779,
                    1.17011,
                    0.04997
                ],
                [
                    0.04997,
                    0.03778,
                    1.17012
                ]
            ],
            [
                [
                    2.32489,
                    -0.55575,
                    -0.20572
                ],
                [
                    -0.20569,
                    2.32484,
                    -0.55574
                ],
                [
                    -0.55556,
                    -0.20521,
                    2.3243
                ]
            ],
            [
                [
                    2.32489,
                    0.55575,
                    0.20572
                ],
                [
                    0.20515,
                    2.32433,
                    -0.55553
                ],
                [
                    0.55572,
                    -0.20569,
                    2.32488
                ]
            ],
            [
                [
                    2.32431,
                    0.55553,
                    -0.2052
                ],
                [
                    0.20569,
                    2.32484,
                    0.55574
                ],
                [
                    -0.55572,
                    0.20569,
                    2.32488
                ]
            ],
            [
                [
                    2.32431,
                    -0.55553,
                    0.2052
                ],
                [
                    -0.20515,
                    2.32433,
                    0.55553
                ],
                [
                    0.55556,
                    0.20521,
                    2.3243
                ]
            ],
            [
                [
                    -1.13636,
                    1.03093,
                    5e-05
                ],
                [
                    -0.02542,
                    -4.53285,
                    0.00011
                ],
                [
                    -0.0,
                    0.0,
                    -1.32011
                ]
            ],
            [
                [
                    -1.13636,
                    -1.03093,
                    -5e-05
                ],
                [
                    0.02542,
                    -4.53285,
                    -0.00011
                ],
                [
                    -0.0,
                    0.0,
                    -1.3204
                ]
            ],
            [
                [
                    -4.53288,
                    9e-05,
                    -0.02541
                ],
                [
                    -0.0,
                    -1.32039,
                    0.0
                ],
                [
                    1.03094,
                    -0.0,
                    -1.13635
                ]
            ],
            [
                [
                    -4.53288,
                    -9e-05,
                    0.02541
                ],
                [
                    -0.0,
                    -1.32012,
                    0.0
                ],
                [
                    -1.03094,
                    0.0,
                    -1.13635
                ]
            ],
            [
                [
                    -1.32039,
                    0.0,
                    0.0
                ],
                [
                    0.00011,
                    -1.13634,
                    1.03093
                ],
                [
                    -4e-05,
                    -0.02542,
                    -4.53286
                ]
            ],
            [
                [
                    -1.32013,
                    0.0,
                    0.0
                ],
                [
                    -0.00011,
                    -1.13634,
                    -1.03093
                ],
                [
                    4e-05,
                    0.02542,
                    -4.53286
                ]
            ]
        ]
    },
    "band_gap": 1.6847999999999999,
    "is_direct": false,
    "formula": "Rb2Pb2O3"
}