{
    "mp_id": "mp-1223057",
    "nelements": 4,
    "nsites": 12,
    "elements": [
        "Ag",
        "La",
        "Mo",
        "O"
    ],
    "structure": {
        "@module": "pymatgen.core.structure",
        "@class": "Structure",
        "charge": null,
        "lattice": {
            "matrix": [
                [
                    -2.67083134,
                    2.67083132,
                    5.74216632
                ],
                [
                    2.67083134,
                    -2.67083132,
                    5.74216632
                ],
                [
                    2.67083132,
                    2.67083134,
                    -5.74216632
                ]
            ],
            "a": 6.87307456915473,
            "b": 6.87307456915473,
            "c": 6.87307456915473,
            "alpha": 134.26599170859453,
            "beta": 134.26599170859453,
            "gamma": 66.67284711774627,
            "volume": 163.84329863476492
        },
        "sites": [
            {
                "species": [
                    {
                        "element": "La",
                        "occu": 1
                    }
                ],
                "abc": [
                    0.5,
                    0.5,
                    0.0
                ],
                "xyz": [
                    0.0,
                    0.0,
                    5.74216632
                ],
                "label": "La",
                "properties": {}
            },
            {
                "species": [
                    {
                        "element": "Ag",
                        "occu": 1
                    }
                ],
                "abc": [
                    0.75,
                    0.25,
                    0.5
                ],
                "xyz": [
                    -1.0000000161269895e-08,
                    2.6708313300000004,
                    2.87108316
                ],
                "label": "Ag",
                "properties": {}
            },
            {
                "species": [
                    {
                        "element": "Mo",
                        "occu": 1
                    }
                ],
                "abc": [
                    0.25,
                    0.75,
                    0.5
                ],
                "xyz": [
                    2.6708313300000004,
                    9.999999717180685e-09,
                    2.87108316
                ],
                "label": "Mo",
                "properties": {}
            },
            {
                "species": [
                    {
                        "element": "Mo",
                        "occu": 1
                    }
                ],
                "abc": [
                    0.0,
                    0.0,
                    0.0
                ],
                "xyz": [
                    0.0,
                    0.0,
                    0.0
                ],
                "label": "Mo",
                "properties": {}
            },
            {
                "species": [
                    {
                        "element": "O",
                        "occu": 1
                    }
                ],
                "abc": [
                    0.39765907,
                    0.51485918,
                    0.58893798
                ],
                "xyz": [
                    1.885975729360981,
                    1.259932289804848,
                    1.8580517282105062
                ],
                "label": "O",
                "properties": {}
            },
            {
                "species": [
                    {
                        "element": "O",
                        "occu": 1
                    }
                ],
                "abc": [
                    0.9259212,
                    0.80872109,
                    0.41106202
                ],
                "xyz": [
                    0.7848555906390191,
                    1.4108990501951517,
                    7.6002180482105075
                ],
                "label": "O",
                "properties": {}
            },
            {
                "species": [
                    {
                        "element": "O",
                        "occu": 1
                    }
                ],
                "abc": [
                    0.06886543,
                    0.15551314,
                    0.39252891
                ],
                "xyz": [
                    1.2797999262406927,
                    0.8169570970097623,
                    -0.9655472190445491
                ],
                "label": "O",
                "properties": {}
            },
            {
                "species": [
                    {
                        "element": "O",
                        "occu": 1
                    }
                ],
                "abc": [
                    0.76298422,
                    0.67633552,
                    0.60747109
                ],
                "xyz": [
                    1.391028749636281,
                    1.8538768871132445,
                    4.776613301367467
                ],
                "label": "O",
                "properties": {}
            },
            {
                "species": [
                    {
                        "element": "O",
                        "occu": 1
                    }
                ],
                "abc": [
                    0.84448686,
                    0.23701578,
                    0.91335229
                ],
                "xyz": [
                    0.8169571037180758,
                    4.061862707050993,
                    0.9655472764662125
                ],
                "label": "O",
                "properties": {}
            },
            {
                "species": [
                    {
                        "element": "O",
                        "occu": 1
                    }
                ],
                "abc": [
                    0.32366448,
                    0.93113457,
                    0.08664771
                ],
                "xyz": [
                    1.8538715721588979,
                    -1.3910287229279874,
                    6.707719281210869
                ],
                "label": "O",
                "properties": {}
            },
            {
                "species": [
                    {
                        "element": "O",
                        "occu": 1
                    }
                ],
                "abc": [
                    0.19127891,
                    0.60234093,
                    0.11720011
                ],
                "xyz": [
                    1.410899050195152,
                    -0.784855590639019,
                    3.884114591789494
                ],
                "label": "O",
                "properties": {}
            },
            {
                "species": [
                    {
                        "element": "O",
                        "occu": 1
                    }
                ],
                "abc": [
                    0.48514082,
                    0.0740788,
                    0.88279989
                ],
                "xyz": [
                    1.2599322698048483,
                    3.455686930639019,
                    -1.8580517282105067
                ],
                "label": "O",
                "properties": {}
            }
        ]
    },
    "spacegroup": {
        "source": "spglib",
        "symbol": "I-4",
        "number": 82,
        "point_group": "-4",
        "crystal_system": "tetragonal",
        "hall": "I -4"
    },
    "dielectric": {
        "epsilon_ionic": [
            [
                10.30548084,
                0.00024225,
                5.453e-05
            ],
            [
                0.00024225,
                10.30546807,
                -1.817e-05
            ],
            [
                5.453e-05,
                -1.817e-05,
                7.32172934
            ]
        ],
        "epsilon_ionic_avg": 9.310892749999999,
        "epsilon_ionic_eig": [
            10.305716789363643,
            10.305232121743629,
            7.321729338892726
        ],
        "epsilon_electronic": [
            [
                4.84607333,
                -1.5e-06,
                0.0
            ],
            [
                1.5e-06,
                4.84607333,
                0.0
            ],
            [
                0.0,
                0.0,
                4.75586671
            ]
        ],
        "epsilon_electronic_avg": 4.8160044566666675,
        "epsilon_electronic_eig": [
            4.84607333,
            4.84607333,
            4.75586671
        ]
    },
    "phonon": {
        "lowest_freq": -0.05069524063647687,
        "frequency": [
            -0.05069524063647687,
            -0.05069524063647687,
            -0.04346241958318814,
            2.2035717909678216,
            2.2035717909678216,
            2.2828539938023003,
            2.9908696043637586,
            3.403341167469558,
            3.403341167469558,
            3.896483847456772,
            3.896483847456772,
            4.499362383896865,
            4.499362383896865,
            4.593055584615077,
            5.5875591552855655,
            6.403083321570207,
            6.964108857682191,
            7.325215545467526,
            7.325215545467526,
            8.508131094448816,
            8.508131094448816,
            9.039233807295261,
            9.058311945954001,
            10.763889769326887,
            10.980243001444059,
            10.980243001444059,
            11.647532939580795,
            12.106166152323471,
            22.02914035524437,
            22.447821215535008,
            22.447821215535008,
            22.725532748840713,
            22.725532748840713,
            23.777033766318848,
            25.202476846694697,
            25.67833461453268
        ]
    },
    "born_effective_charge": {
        "avg_abs_trace": 2.689019722222222,
        "tensors": [
            [
                [
                    5.18,
                    -0.35791,
                    0.00015
                ],
                [
                    0.35806,
                    5.17988,
                    -5e-05
                ],
                [
                    -0.0,
                    0.0,
                    4.78181
                ]
            ],
            [
                [
                    1.51741,
                    -0.08174,
                    4e-05
                ],
                [
                    0.08176,
                    1.51755,
                    4e-05
                ],
                [
                    -0.0,
                    0.0,
                    1.39587
                ]
            ],
            [
                [
                    4.47951,
                    0.42164,
                    -0.00012
                ],
                [
                    -0.42168,
                    4.47954,
                    8e-05
                ],
                [
                    -0.0,
                    0.0,
                    5.5699
                ]
            ],
            [
                [
                    4.98815,
                    0.23825,
                    -0.0
                ],
                [
                    -0.23828,
                    4.98818,
                    5e-05
                ],
                [
                    -0.0,
                    0.0,
                    4.32456
                ]
            ],
            [
                [
                    -1.41338,
                    0.60887,
                    -0.66053
                ],
                [
                    0.6229,
                    -2.34487,
                    1.31375
                ],
                [
                    -0.52194,
                    1.40802,
                    -2.37327
                ]
            ],
            [
                [
                    -1.41318,
                    0.60862,
                    0.66042
                ],
                [
                    0.6228,
                    -2.34512,
                    -1.3137
                ],
                [
                    0.52194,
                    -1.40802,
                    -2.37327
                ]
            ],
            [
                [
                    -2.42046,
                    -1.22968,
                    0.61506
                ],
                [
                    -1.13363,
                    -1.90374,
                    0.60648
                ],
                [
                    0.69302,
                    0.51405,
                    -1.64482
                ]
            ],
            [
                [
                    -2.42047,
                    -1.22968,
                    -0.6152
                ],
                [
                    -1.13366,
                    -1.90387,
                    -0.60672
                ],
                [
                    -0.69302,
                    -0.51405,
                    -1.64482
                ]
            ],
            [
                [
                    -1.9037,
                    1.13371,
                    -0.60652
                ],
                [
                    1.22965,
                    -2.42046,
                    0.61501
                ],
                [
                    -0.51397,
                    0.69302,
                    -1.64478
                ]
            ],
            [
                [
                    -1.90399,
                    1.13341,
                    0.60677
                ],
                [
                    1.22975,
                    -2.42027,
                    -0.61506
                ],
                [
                    0.51397,
                    -0.69302,
                    -1.64478
                ]
            ],
            [
                [
                    -2.34485,
                    -0.62268,
                    1.31378
                ],
                [
                    -0.60873,
                    -1.41352,
                    0.66061
                ],
                [
                    1.40806,
                    0.52185,
                    -2.3732
                ]
            ],
            [
                [
                    -2.34503,
                    -0.6228,
                    -1.31384
                ],
                [
                    -0.60894,
                    -1.4133,
                    -0.66049
                ],
                [
                    -1.40806,
                    -0.52185,
                    -2.3732
                ]
            ]
        ]
    },
    "band_gap": 3.0419,
    "is_direct": false,
    "formula": "LaAg(MoO4)2"
}