{
    "mp_id": "mp-1019526",
    "nelements": 4,
    "nsites": 27,
    "elements": [
        "B",
        "Ba",
        "O",
        "Si"
    ],
    "structure": {
        "@module": "pymatgen.core.structure",
        "@class": "Structure",
        "charge": null,
        "lattice": {
            "matrix": [
                [
                    5.03657198,
                    -0.00151203,
                    0.00011022
                ],
                [
                    0.32586804,
                    7.54974143,
                    0.00063567
                ],
                [
                    1.82784098,
                    1.81224787,
                    8.14831343
                ]
            ],
            "a": 5.036572208169391,
            "b": 7.556770874085586,
            "c": 8.545189099370782,
            "alpha": 77.22134831356534,
            "beta": 77.65133839985185,
            "gamma": 87.54568801616294,
            "volume": 309.8348751427132
        },
        "sites": [
            {
                "species": [
                    {
                        "element": "Ba",
                        "occu": 1
                    }
                ],
                "abc": [
                    0.5,
                    0.0,
                    0.5
                ],
                "xyz": [
                    3.4322064799999996,
                    0.90536792,
                    4.074211825
                ],
                "label": "Ba",
                "properties": {}
            },
            {
                "species": [
                    {
                        "element": "Ba",
                        "occu": 1
                    }
                ],
                "abc": [
                    0.61953132,
                    0.58076963,
                    0.23466883
                ],
                "xyz": [
                    3.7385056522666917,
                    4.809001874277884,
                    1.9125926416641794
                ],
                "label": "Ba",
                "properties": {}
            },
            {
                "species": [
                    {
                        "element": "Ba",
                        "occu": 1
                    }
                ],
                "abc": [
                    0.38046868,
                    0.41923037,
                    0.76533117
                ],
                "xyz": [
                    3.4517753477333075,
                    4.551475395722116,
                    6.2364666783358205
                ],
                "label": "Ba",
                "properties": {}
            },
            {
                "species": [
                    {
                        "element": "Si",
                        "occu": 1
                    }
                ],
                "abc": [
                    0.23850674,
                    0.82590274,
                    0.94104836
                ],
                "xyz": [
                    3.1904784274093676,
                    7.940404389959428,
                    7.668508279875094
                ],
                "label": "Si",
                "properties": {}
            },
            {
                "species": [
                    {
                        "element": "Si",
                        "occu": 1
                    }
                ],
                "abc": [
                    0.76149326,
                    0.17409726,
                    0.05895164
                ],
                "xyz": [
                    3.9998025725906317,
                    1.4200728800405709,
                    0.48055104012490657
                ],
                "label": "Si",
                "properties": {}
            },
            {
                "species": [
                    {
                        "element": "B",
                        "occu": 1
                    }
                ],
                "abc": [
                    0.81415138,
                    0.757307,
                    0.7968172
                ],
                "xyz": [
                    5.803769307483467,
                    7.160271285297273,
                    6.49328742512079
                ],
                "label": "B",
                "properties": {}
            },
            {
                "species": [
                    {
                        "element": "B",
                        "occu": 1
                    }
                ],
                "abc": [
                    0.18584862,
                    0.242693,
                    0.2031828
                ],
                "xyz": [
                    1.3865116925165313,
                    2.2002059847027273,
                    1.6557718948792104
                ],
                "label": "B",
                "properties": {}
            },
            {
                "species": [
                    {
                        "element": "B",
                        "occu": 1
                    }
                ],
                "abc": [
                    0.96784469,
                    0.30609456,
                    0.47441258
                ],
                "xyz": [
                    5.841516636119176,
                    3.169224558529205,
                    3.865963647945636
                ],
                "label": "B",
                "properties": {}
            },
            {
                "species": [
                    {
                        "element": "B",
                        "occu": 1
                    }
                ],
                "abc": [
                    0.03215531,
                    0.69390544,
                    0.52558742
                ],
                "xyz": [
                    1.348764363880823,
                    6.191252711470796,
                    4.283095672054364
                ],
                "label": "B",
                "properties": {}
            },
            {
                "species": [
                    {
                        "element": "B",
                        "occu": 1
                    }
                ],
                "abc": [
                    0.02222052,
                    0.90913985,
                    0.24821838
                ],
                "xyz": [
                    0.861878596371636,
                    7.31357042356598,
                    2.023141521401007
                ],
                "label": "B",
                "properties": {}
            },
            {
                "species": [
                    {
                        "element": "B",
                        "occu": 1
                    }
                ],
                "abc": [
                    0.97777948,
                    0.09086015,
                    0.75178162
                ],
                "xyz": [
                    6.328402403628363,
                    2.0469068464340197,
                    6.125917798598993
                ],
                "label": "B",
                "properties": {}
            },
            {
                "species": [
                    {
                        "element": "O",
                        "occu": 1
                    }
                ],
                "abc": [
                    0.2182921,
                    0.82267048,
                    0.13450675
                ],
                "xyz": [
                    1.613382840935432,
                    6.454378913078146,
                    1.0965501645499363
                ],
                "label": "O",
                "properties": {}
            },
            {
                "species": [
                    {
                        "element": "O",
                        "occu": 1
                    }
                ],
                "abc": [
                    0.7817079,
                    0.17732952,
                    0.86549325
                ],
                "xyz": [
                    5.576898159064568,
                    2.906098356921854,
                    7.052509155450064
                ],
                "label": "O",
                "properties": {}
            },
            {
                "species": [
                    {
                        "element": "O",
                        "occu": 1
                    }
                ],
                "abc": [
                    0.1432713,
                    0.36563269,
                    0.31967477
                ],
                "xyz": [
                    1.4250588680464762,
                    3.339545558376847,
                    2.6050584347178996
                ],
                "label": "O",
                "properties": {}
            },
            {
                "species": [
                    {
                        "element": "O",
                        "occu": 1
                    }
                ],
                "abc": [
                    0.8567287,
                    0.63436731,
                    0.68032523
                ],
                "xyz": [
                    5.765222131953523,
                    6.020931711623152,
                    5.5440008852821006
                ],
                "label": "O",
                "properties": {}
            },
            {
                "species": [
                    {
                        "element": "O",
                        "occu": 1
                    }
                ],
                "abc": [
                    0.99150819,
                    0.70472842,
                    0.91840465
                ],
                "xyz": [
                    6.90214849214477,
                    6.983395030004511,
                    7.484006202516894
                ],
                "label": "O",
                "properties": {}
            },
            {
                "species": [
                    {
                        "element": "O",
                        "occu": 1
                    }
                ],
                "abc": [
                    0.00849181,
                    0.29527158,
                    0.08159535
                ],
                "xyz": [
                    0.28813250785523004,
                    2.377082239995489,
                    0.6650531174831072
                ],
                "label": "O",
                "properties": {}
            },
            {
                "species": [
                    {
                        "element": "O",
                        "occu": 1
                    }
                ],
                "abc": [
                    0.90412721,
                    0.77168557,
                    0.39688159
                ],
                "xyz": [
                    5.530605870843316,
                    6.543907267416542,
                    3.2345057801841217
                ],
                "label": "O",
                "properties": {}
            },
            {
                "species": [
                    {
                        "element": "O",
                        "occu": 1
                    }
                ],
                "abc": [
                    0.09587279,
                    0.22831443,
                    0.60311841
                ],
                "xyz": [
                    1.6596751291566831,
                    2.816570002583458,
                    4.914553539815879
                ],
                "label": "O",
                "properties": {}
            },
            {
                "species": [
                    {
                        "element": "O",
                        "occu": 1
                    }
                ],
                "abc": [
                    0.69766684,
                    0.32485114,
                    0.49420085
                ],
                "xyz": [
                    4.523028427983541,
                    3.3471016548133345,
                    4.027186818135685
                ],
                "label": "O",
                "properties": {}
            },
            {
                "species": [
                    {
                        "element": "O",
                        "occu": 1
                    }
                ],
                "abc": [
                    0.30233316,
                    0.67514886,
                    0.50579915
                ],
                "xyz": [
                    2.6672525720164577,
                    6.013375615186665,
                    4.121872501864315
                ],
                "label": "O",
                "properties": {}
            },
            {
                "species": [
                    {
                        "element": "O",
                        "occu": 1
                    }
                ],
                "abc": [
                    0.47522697,
                    0.27634216,
                    0.11248973
                ],
                "xyz": [
                    2.6891792576140023,
                    2.289452570361615,
                    0.9168296196335545
                ],
                "label": "O",
                "properties": {}
            },
            {
                "species": [
                    {
                        "element": "O",
                        "occu": 1
                    }
                ],
                "abc": [
                    0.52477303,
                    0.72365784,
                    0.88751027
                ],
                "xyz": [
                    4.501101742385997,
                    7.071024699638386,
                    7.232229700366446
                ],
                "label": "O",
                "properties": {}
            },
            {
                "species": [
                    {
                        "element": "O",
                        "occu": 1
                    }
                ],
                "abc": [
                    0.86524397,
                    0.94293706,
                    0.7036081
                ],
                "xyz": [
                    5.951220305791461,
                    8.392734993464185,
                    5.733914094678086
                ],
                "label": "O",
                "properties": {}
            },
            {
                "species": [
                    {
                        "element": "O",
                        "occu": 1
                    }
                ],
                "abc": [
                    0.13475603,
                    0.05706294,
                    0.2963919
                ],
                "xyz": [
                    1.239060694208539,
                    0.9677422765358163,
                    2.4151452253219134
                ],
                "label": "O",
                "properties": {}
            },
            {
                "species": [
                    {
                        "element": "O",
                        "occu": 1
                    }
                ],
                "abc": [
                    0.7788761,
                    0.97101748,
                    0.17376982
                ],
                "xyz": [
                    4.5569127022482405,
                    7.644667200145997,
                    1.4166340524399361
                ],
                "label": "O",
                "properties": {}
            },
            {
                "species": [
                    {
                        "element": "O",
                        "occu": 1
                    }
                ],
                "abc": [
                    0.2211239,
                    0.02898252,
                    0.82623018
                ],
                "xyz": [
                    2.633368297751759,
                    1.715810069854003,
                    6.732425267560064
                ],
                "label": "O",
                "properties": {}
            }
        ]
    },
    "spacegroup": {
        "source": "spglib",
        "symbol": "P-1",
        "number": 2,
        "point_group": "-1",
        "crystal_system": "triclinic",
        "hall": "-P 1"
    },
    "dielectric": {
        "epsilon_ionic": [
            [
                5.40780777,
                -0.41281834,
                -0.23614513
            ],
            [
                -0.41281834,
                5.21870093,
                -0.09474154
            ],
            [
                -0.23614513,
                -0.09474154,
                5.57747342
            ]
        ],
        "epsilon_ionic_avg": 5.401327373333332,
        "epsilon_ionic_eig": [
            4.823310384737671,
            5.819922347970217,
            5.560749387292108
        ],
        "epsilon_electronic": [
            [
                3.11740912,
                -0.03914333,
                0.00936246
            ],
            [
                -0.03914355,
                3.00012275,
                -0.00027288
            ],
            [
                0.00936105,
                -0.00027419,
                3.11525658
            ]
        ],
        "epsilon_electronic_avg": 3.0775961499999984,
        "epsilon_electronic_eig": [
            2.9882113656888247,
            3.1337100376876115,
            3.1108670466235595
        ]
    },
    "phonon": {
        "lowest_freq": -0.0795940035155903,
        "frequency": [
            -0.0795940035155903,
            -0.05566413430404295,
            -0.03666321975040873,
            2.258602677071524,
            2.3629232836994607,
            2.467118101103763,
            2.840094147782087,
            2.845374801366344,
            3.189079310421118,
            3.3496921506631128,
            3.43472268408755,
            3.6400118236700627,
            3.697066824151827,
            4.025808698340059,
            4.549790591050689,
            4.8068913509378355,
            4.961851281153942,
            5.319537930857193,
            6.060127233292991,
            6.421966241144287,
            6.6812642689118,
            7.1507569605689225,
            7.708418449113312,
            7.867093583911457,
            8.268171719116173,
            8.573230394167828,
            8.851677462297255,
            9.61340841633466,
            9.910998615964862,
            10.234306820201393,
            10.507513433542448,
            11.121563478448163,
            11.268083612097463,
            12.025253198403158,
            12.05126383437278,
            12.672285267528107,
            12.68035929951844,
            13.35618857450956,
            13.902371820498537,
            14.283788614077036,
            15.058013228241828,
            15.135300920059557,
            15.721751779701206,
            16.49662428290211,
            16.832108954609126,
            17.268202036242336,
            17.722466288974356,
            17.893973828319908,
            18.197621843904304,
            19.250053832719555,
            19.438877070936336,
            20.05428195833268,
            21.331776403261767,
            22.484892186629075,
            22.656734263518427,
            23.98544463030501,
            24.404311795352307,
            25.300400753970916,
            25.641445895305992,
            26.154591010726513,
            26.18838336212304,
            26.82992035157223,
            26.93827864516763,
            27.05906053372451,
            27.40688508493791,
            27.77083807431631,
            28.30954907411208,
            28.724422808325638,
            29.084022354651943,
            29.212322901677624,
            30.557061161703974,
            30.8271263440268,
            31.20050304659243,
            31.67550661657489,
            31.97266061570543,
            32.12668684492935,
            33.25973989199495,
            36.285756423917164,
            36.84079308638055,
            40.63600109870854,
            40.64473330299888
        ]
    },
    "born_effective_charge": {
        "avg_abs_trace": 2.122713827160494,
        "tensors": [
            [
                [
                    2.95194,
                    -0.01797,
                    0.0136
                ],
                [
                    -0.00596,
                    2.72312,
                    0.17613
                ],
                [
                    0.03491,
                    0.17666,
                    2.51686
                ]
            ],
            [
                [
                    2.63347,
                    -0.02795,
                    0.01718
                ],
                [
                    -0.02859,
                    2.8708,
                    -0.10815
                ],
                [
                    0.01947,
                    -0.09226,
                    2.73648
                ]
            ],
            [
                [
                    2.63348,
                    -0.02794,
                    0.01715
                ],
                [
                    -0.02855,
                    2.87079,
                    -0.10812
                ],
                [
                    0.01951,
                    -0.09228,
                    2.7365
                ]
            ],
            [
                [
                    3.32639,
                    -0.3038,
                    0.09113
                ],
                [
                    -0.17175,
                    2.83907,
                    0.07805
                ],
                [
                    0.13578,
                    0.09843,
                    3.29531
                ]
            ],
            [
                [
                    3.3264,
                    -0.30381,
                    0.09113
                ],
                [
                    -0.17175,
                    2.83908,
                    0.07803
                ],
                [
                    0.13578,
                    0.09842,
                    3.29533
                ]
            ],
            [
                [
                    2.75007,
                    0.0747,
                    -0.12154
                ],
                [
                    0.13347,
                    2.23551,
                    0.1567
                ],
                [
                    -0.00599,
                    0.1286,
                    2.54759
                ]
            ],
            [
                [
                    2.75006,
                    0.07473,
                    -0.12155
                ],
                [
                    0.13346,
                    2.23558,
                    0.15669
                ],
                [
                    -0.00597,
                    0.12859,
                    2.54761
                ]
            ],
            [
                [
                    2.74127,
                    -0.37424,
                    -0.02728
                ],
                [
                    -0.47045,
                    0.96094,
                    -0.25428
                ],
                [
                    0.06273,
                    -0.30931,
                    2.6178
                ]
            ],
            [
                [
                    2.74127,
                    -0.37424,
                    -0.0273
                ],
                [
                    -0.47043,
                    0.96097,
                    -0.2543
                ],
                [
                    0.06267,
                    -0.30932,
                    2.6178
                ]
            ],
            [
                [
                    2.17299,
                    0.03322,
                    0.13994
                ],
                [
                    -0.12729,
                    2.53145,
                    0.09984
                ],
                [
                    -0.10408,
                    0.17131,
                    2.62973
                ]
            ],
            [
                [
                    2.17298,
                    0.03325,
                    0.13995
                ],
                [
                    -0.12724,
                    2.53152,
                    0.09981
                ],
                [
                    -0.1041,
                    0.17128,
                    2.62975
                ]
            ],
            [
                [
                    -1.5038,
                    0.38183,
                    0.09967
                ],
                [
                    0.44036,
                    -1.53271,
                    -0.52352
                ],
                [
                    0.17123,
                    -0.50489,
                    -2.36967
                ]
            ],
            [
                [
                    -1.50389,
                    0.3819,
                    0.09966
                ],
                [
                    0.44031,
                    -1.53267,
                    -0.52356
                ],
                [
                    0.17124,
                    -0.5049,
                    -2.36977
                ]
            ],
            [
                [
                    -1.55227,
                    -0.01021,
                    0.45655
                ],
                [
                    -0.06229,
                    -1.53544,
                    -0.28087
                ],
                [
                    0.42646,
                    -0.3272,
                    -2.19497
                ]
            ],
            [
                [
                    -1.55217,
                    -0.01004,
                    0.45646
                ],
                [
                    -0.06248,
                    -1.53547,
                    -0.28091
                ],
                [
                    0.42658,
                    -0.32713,
                    -2.19491
                ]
            ],
            [
                [
                    -2.20323,
                    -0.21214,
                    -0.4402
                ],
                [
                    -0.2901,
                    -1.37959,
                    -0.04253
                ],
                [
                    -0.43898,
                    -0.01658,
                    -1.7437
                ]
            ],
            [
                [
                    -2.2032,
                    -0.2121,
                    -0.44023
                ],
                [
                    -0.2902,
                    -1.37975,
                    -0.04237
                ],
                [
                    -0.43893,
                    -0.01648,
                    -1.74379
                ]
            ],
            [
                [
                    -1.62746,
                    0.17249,
                    -0.44048
                ],
                [
                    0.18299,
                    -1.36962,
                    0.40173
                ],
                [
                    -0.38066,
                    0.4118,
                    -2.33049
                ]
            ],
            [
                [
                    -1.62748,
                    0.17248,
                    -0.44042
                ],
                [
                    0.18312,
                    -1.36965,
                    0.40168
                ],
                [
                    -0.38082,
                    0.4118,
                    -2.33045
                ]
            ],
            [
                [
                    -2.30138,
                    0.10961,
                    0.14915
                ],
                [
                    0.23531,
                    -1.58217,
                    0.04531
                ],
                [
                    0.06737,
                    0.06623,
                    -1.59533
                ]
            ],
            [
                [
                    -2.30127,
                    0.10957,
                    0.14914
                ],
                [
                    0.23514,
                    -1.58228,
                    0.04529
                ],
                [
                    0.06738,
                    0.06628,
                    -1.59527
                ]
            ],
            [
                [
                    -2.56686,
                    0.31116,
                    0.52917
                ],
                [
                    0.24239,
                    -1.41772,
                    -0.10845
                ],
                [
                    0.52638,
                    -0.17798,
                    -1.61525
                ]
            ],
            [
                [
                    -2.5668,
                    0.31123,
                    0.52919
                ],
                [
                    0.24233,
                    -1.41761,
                    -0.10854
                ],
                [
                    0.52646,
                    -0.17804,
                    -1.61516
                ]
            ],
            [
                [
                    -1.54785,
                    -0.43828,
                    -0.16057
                ],
                [
                    -0.40692,
                    -2.23559,
                    0.09989
                ],
                [
                    -0.19277,
                    0.11364,
                    -1.49757
                ]
            ],
            [
                [
                    -1.5478,
                    -0.43825,
                    -0.16052
                ],
                [
                    -0.40696,
                    -2.23557,
                    0.09995
                ],
                [
                    -0.19278,
                    0.11366,
                    -1.49763
                ]
            ],
            [
                [
                    -1.79741,
                    0.29238,
                    -0.29949
                ],
                [
                    0.32619,
                    -1.74651,
                    0.34827
                ],
                [
                    -0.30446,
                    0.34985,
                    -1.73841
                ]
            ],
            [
                [
                    -1.79748,
                    0.29242,
                    -0.2995
                ],
                [
                    0.32591,
                    -1.74646,
                    0.34821
                ],
                [
                    -0.3044,
                    0.34982,
                    -1.73838
                ]
            ]
        ]
    },
    "band_gap": 5.42,
    "is_direct": false,
    "formula": "Ba3Si2(B3O8)2"
}