{
    "mp_id": "mp-1178449",
    "nelements": 3,
    "nsites": 8,
    "elements": [
        "Cs",
        "La",
        "O"
    ],
    "structure": {
        "@module": "pymatgen.core.structure",
        "@class": "Structure",
        "charge": null,
        "lattice": {
            "matrix": [
                [
                    3.73617937,
                    0.0,
                    0.0
                ],
                [
                    -1.86808969,
                    3.23562621,
                    0.0
                ],
                [
                    0.0,
                    0.0,
                    13.56685864
                ]
            ],
            "a": 3.73617937,
            "b": 3.736179340010763,
            "c": 13.56685864,
            "alpha": 90.0,
            "beta": 90.0,
            "gamma": 120.00000035406046,
            "volume": 164.00812464914125
        },
        "sites": [
            {
                "species": [
                    {
                        "element": "Cs",
                        "occu": 1
                    }
                ],
                "abc": [
                    0.333333,
                    0.666667,
                    0.75
                ],
                "xyz": [
                    -1.8714230198835224e-06,
                    2.15708521854207,
                    10.17514398
                ],
                "label": "Cs",
                "properties": {}
            },
            {
                "species": [
                    {
                        "element": "Cs",
                        "occu": 1
                    }
                ],
                "abc": [
                    0.666667,
                    0.333333,
                    0.25
                ],
                "xyz": [
                    1.8680915514230199,
                    1.07854099145793,
                    3.39171466
                ],
                "label": "Cs",
                "properties": {}
            },
            {
                "species": [
                    {
                        "element": "La",
                        "occu": 1
                    }
                ],
                "abc": [
                    0.0,
                    0.0,
                    0.0
                ],
                "xyz": [
                    0.0,
                    0.0,
                    0.0
                ],
                "label": "La",
                "properties": {}
            },
            {
                "species": [
                    {
                        "element": "La",
                        "occu": 1
                    }
                ],
                "abc": [
                    0.0,
                    0.0,
                    0.5
                ],
                "xyz": [
                    0.0,
                    0.0,
                    6.78342932
                ],
                "label": "La",
                "properties": {}
            },
            {
                "species": [
                    {
                        "element": "O",
                        "occu": 1
                    }
                ],
                "abc": [
                    0.333333,
                    0.666667,
                    0.41422975
                ],
                "xyz": [
                    -1.8714230198835224e-06,
                    2.15708521854207,
                    5.61979646273254
                ],
                "label": "O",
                "properties": {}
            },
            {
                "species": [
                    {
                        "element": "O",
                        "occu": 1
                    }
                ],
                "abc": [
                    0.333333,
                    0.666667,
                    0.08577025
                ],
                "xyz": [
                    -1.8714230198835224e-06,
                    2.15708521854207,
                    1.1636328572674601
                ],
                "label": "O",
                "properties": {}
            },
            {
                "species": [
                    {
                        "element": "O",
                        "occu": 1
                    }
                ],
                "abc": [
                    0.666667,
                    0.333333,
                    0.58577025
                ],
                "xyz": [
                    1.8680915514230199,
                    1.07854099145793,
                    7.94706217726746
                ],
                "label": "O",
                "properties": {}
            },
            {
                "species": [
                    {
                        "element": "O",
                        "occu": 1
                    }
                ],
                "abc": [
                    0.666667,
                    0.333333,
                    0.91422975
                ],
                "xyz": [
                    1.8680915514230199,
                    1.07854099145793,
                    12.40322578273254
                ],
                "label": "O",
                "properties": {}
            }
        ]
    },
    "spacegroup": {
        "source": "spglib",
        "symbol": "P6_3/mmc",
        "number": 194,
        "point_group": "6/mmm",
        "crystal_system": "hexagonal",
        "hall": "-P 6c 2c"
    },
    "dielectric": {
        "epsilon_ionic": [
            [
                18.42530487,
                3.19e-06,
                0.0
            ],
            [
                3.19e-06,
                18.42284482,
                1e-08
            ],
            [
                0.0,
                1e-08,
                13.55935903
            ]
        ],
        "epsilon_ionic_avg": 16.802502906666664,
        "epsilon_ionic_eig": [
            18.425304874136533,
            18.422844815863467,
            13.55935903
        ],
        "epsilon_electronic": [
            [
                4.32848492,
                -6.7e-07,
                0.0
            ],
            [
                -6.7e-07,
                4.32848512,
                0.0
            ],
            [
                -0.0,
                0.0,
                4.01716321
            ]
        ],
        "epsilon_electronic_avg": 4.224711083333333,
        "epsilon_electronic_eig": [
            4.328484342578418,
            4.328485697421582,
            4.01716321
        ]
    },
    "phonon": {
        "lowest_freq": -0.07229290265966574,
        "frequency": [
            -0.07229290265966574,
            -0.07229289133434232,
            -0.05699743558716578,
            0.8968650274698666,
            0.8968651664473644,
            1.2738893735744279,
            1.273889572142782,
            1.693102030521607,
            1.6931022903524942,
            2.659528817491961,
            2.9445559790854183,
            3.1953474026207735,
            5.546221749545017,
            5.546222608833089,
            5.7316265984028245,
            5.731627493855846,
            7.652605443847452,
            7.945346298041359,
            7.945347543827783,
            7.997222842770681,
            7.9972240957562235,
            12.080805074075565,
            12.161935273838726,
            12.559207854008292
        ]
    },
    "born_effective_charge": {
        "avg_abs_trace": 2.659718333333333,
        "tensors": [
            [
                [
                    1.0694,
                    5e-05,
                    -0.0
                ],
                [
                    0.0,
                    1.06926,
                    0.0
                ],
                [
                    -0.0,
                    0.0,
                    1.85013
                ]
            ],
            [
                [
                    1.0694,
                    -5e-05,
                    -0.0
                ],
                [
                    0.0,
                    1.06956,
                    0.0
                ],
                [
                    0.0,
                    0.0,
                    1.85013
                ]
            ],
            [
                [
                    4.52696,
                    0.0,
                    -0.0
                ],
                [
                    -0.0,
                    4.52656,
                    -0.00026
                ],
                [
                    0.0,
                    -0.0,
                    2.91585
                ]
            ],
            [
                [
                    4.52696,
                    0.0,
                    -0.0
                ],
                [
                    -0.0,
                    4.52656,
                    0.00026
                ],
                [
                    -0.0,
                    0.0,
                    2.91585
                ]
            ],
            [
                [
                    -2.79818,
                    -0.00085,
                    -0.00016
                ],
                [
                    -0.0,
                    -2.7978,
                    -0.00068
                ],
                [
                    0.0,
                    0.0,
                    -2.38303
                ]
            ],
            [
                [
                    -2.79818,
                    -0.00085,
                    0.00016
                ],
                [
                    -0.0,
                    -2.7978,
                    0.00068
                ],
                [
                    -0.0,
                    0.0,
                    -2.38295
                ]
            ],
            [
                [
                    -2.79818,
                    0.00085,
                    0.00016
                ],
                [
                    -0.0,
                    -2.79817,
                    0.00017
                ],
                [
                    0.0,
                    -0.0,
                    -2.38295
                ]
            ],
            [
                [
                    -2.79818,
                    0.00085,
                    -0.00016
                ],
                [
                    -0.0,
                    -2.79817,
                    -0.00017
                ],
                [
                    -0.0,
                    -0.0,
                    -2.38303
                ]
            ]
        ]
    },
    "band_gap": 2.8381000000000003,
    "is_direct": false,
    "formula": "CsLaO2"
}