{
    "mp_id": "mp-19083",
    "nelements": 3,
    "nsites": 20,
    "elements": [
        "Na",
        "O",
        "V"
    ],
    "structure": {
        "@module": "pymatgen.core.structure",
        "@class": "Structure",
        "charge": null,
        "lattice": {
            "matrix": [
                [
                    5.32704931,
                    -4.68711267,
                    -2.886e-05
                ],
                [
                    5.32704931,
                    4.68711267,
                    -2.886e-05
                ],
                [
                    -2.08608344,
                    0.0,
                    5.55694667
                ]
            ],
            "a": 7.095525317640612,
            "b": 7.095525317640612,
            "c": 5.935604468953969,
            "alpha": 105.29928236965038,
            "beta": 105.29928236965038,
            "gamma": 82.68718018508326,
            "volume": 277.49646270921636
        },
        "sites": [
            {
                "species": [
                    {
                        "element": "Na",
                        "occu": 1
                    }
                ],
                "abc": [
                    0.08818841,
                    0.91181159,
                    0.25
                ],
                "xyz": [
                    4.80552845,
                    3.8604146422836907,
                    1.3892078075
                ],
                "label": "Na",
                "properties": {}
            },
            {
                "species": [
                    {
                        "element": "Na",
                        "occu": 1
                    }
                ],
                "abc": [
                    0.91181159,
                    0.08818841,
                    0.75
                ],
                "xyz": [
                    3.7624867299999996,
                    -3.8604146422836907,
                    4.1676811425
                ],
                "label": "Na",
                "properties": {}
            },
            {
                "species": [
                    {
                        "element": "Na",
                        "occu": 1
                    }
                ],
                "abc": [
                    0.71780608,
                    0.28219392,
                    0.25
                ],
                "xyz": [
                    4.80552845,
                    -2.0417632743420677,
                    1.3892078075
                ],
                "label": "Na",
                "properties": {}
            },
            {
                "species": [
                    {
                        "element": "Na",
                        "occu": 1
                    }
                ],
                "abc": [
                    0.28219392,
                    0.71780608,
                    0.75
                ],
                "xyz": [
                    3.7624867299999996,
                    2.0417632743420677,
                    4.1676811425
                ],
                "label": "Na",
                "properties": {}
            },
            {
                "species": [
                    {
                        "element": "V",
                        "occu": 1
                    }
                ],
                "abc": [
                    0.20188086,
                    0.38088373,
                    0.27086869
                ],
                "xyz": [
                    2.539361018428439,
                    0.8390066199433629,
                    1.505186046316695
                ],
                "label": "V",
                "properties": {}
            },
            {
                "species": [
                    {
                        "element": "V",
                        "occu": 1
                    }
                ],
                "abc": [
                    0.38088373,
                    0.20188086,
                    0.77086869
                ],
                "xyz": [
                    1.4963192984284392,
                    -0.8390066199433629,
                    4.283659381316695
                ],
                "label": "V",
                "properties": {}
            },
            {
                "species": [
                    {
                        "element": "V",
                        "occu": 1
                    }
                ],
                "abc": [
                    0.61911627,
                    0.79811914,
                    0.22913131
                ],
                "xyz": [
                    7.07169588157156,
                    0.8390066199433623,
                    1.273229568683305
                ],
                "label": "V",
                "properties": {}
            },
            {
                "species": [
                    {
                        "element": "V",
                        "occu": 1
                    }
                ],
                "abc": [
                    0.79811914,
                    0.61911627,
                    0.72913131
                ],
                "xyz": [
                    6.02865416157156,
                    -0.8390066199433623,
                    4.051702903683306
                ],
                "label": "V",
                "properties": {}
            },
            {
                "species": [
                    {
                        "element": "O",
                        "occu": 1
                    }
                ],
                "abc": [
                    0.64900992,
                    0.64562188,
                    0.4396682
                ],
                "xyz": [
                    5.97938288577945,
                    -0.015880125210467,
                    2.4431753768211464
                ],
                "label": "O",
                "properties": {}
            },
            {
                "species": [
                    {
                        "element": "O",
                        "occu": 1
                    }
                ],
                "abc": [
                    0.64562188,
                    0.64900992,
                    0.9396682
                ],
                "xyz": [
                    4.93634116577945,
                    0.015880125210467,
                    5.221648711821146
                ],
                "label": "O",
                "properties": {}
            },
            {
                "species": [
                    {
                        "element": "O",
                        "occu": 1
                    }
                ],
                "abc": [
                    0.39170544,
                    0.89396787,
                    0.17421107
                ],
                "xyz": [
                    6.485426290729234,
                    2.3541605993179884,
                    0.9680445207819104
                ],
                "label": "O",
                "properties": {}
            },
            {
                "species": [
                    {
                        "element": "O",
                        "occu": 1
                    }
                ],
                "abc": [
                    0.89396787,
                    0.39170544,
                    0.67421107
                ],
                "xyz": [
                    5.442384570729234,
                    -2.3541605993179884,
                    3.7465178557819105
                ],
                "label": "O",
                "properties": {}
            },
            {
                "species": [
                    {
                        "element": "O",
                        "occu": 1
                    }
                ],
                "abc": [
                    0.77513846,
                    0.97583215,
                    0.33550751
                ],
                "xyz": [
                    8.627610119224142,
                    0.9406739371880524,
                    1.8643468074426872
                ],
                "label": "O",
                "properties": {}
            },
            {
                "species": [
                    {
                        "element": "O",
                        "occu": 1
                    }
                ],
                "abc": [
                    0.97583215,
                    0.77513846,
                    0.83550751
                ],
                "xyz": [
                    7.584568399224143,
                    -0.9406739371880524,
                    4.642820142442687
                ],
                "label": "O",
                "properties": {}
            },
            {
                "species": [
                    {
                        "element": "O",
                        "occu": 1
                    }
                ],
                "abc": [
                    0.02416785,
                    0.22486154,
                    0.16449249
                ],
                "xyz": [
                    0.9834467807758551,
                    0.9406739371880524,
                    0.9140688075573129
                ],
                "label": "O",
                "properties": {}
            },
            {
                "species": [
                    {
                        "element": "O",
                        "occu": 1
                    }
                ],
                "abc": [
                    0.22486154,
                    0.02416785,
                    0.66449249
                ],
                "xyz": [
                    -0.05959493922414483,
                    -0.9406739371880524,
                    3.692542142557313
                ],
                "label": "O",
                "properties": {}
            },
            {
                "species": [
                    {
                        "element": "O",
                        "occu": 1
                    }
                ],
                "abc": [
                    0.10603213,
                    0.60829456,
                    0.32578893
                ],
                "xyz": [
                    3.1256306092707646,
                    2.3541605993179884,
                    1.8103710942180897
                ],
                "label": "O",
                "properties": {}
            },
            {
                "species": [
                    {
                        "element": "O",
                        "occu": 1
                    }
                ],
                "abc": [
                    0.60829456,
                    0.10603213,
                    0.82578893
                ],
                "xyz": [
                    2.0825888892707645,
                    -2.3541605993179884,
                    4.588844429218089
                ],
                "label": "O",
                "properties": {}
            },
            {
                "species": [
                    {
                        "element": "O",
                        "occu": 1
                    }
                ],
                "abc": [
                    0.35437812,
                    0.35099008,
                    0.0603318
                ],
                "xyz": [
                    3.6316740142205495,
                    -0.015880125210467,
                    0.335240238178854
                ],
                "label": "O",
                "properties": {}
            },
            {
                "species": [
                    {
                        "element": "O",
                        "occu": 1
                    }
                ],
                "abc": [
                    0.35099008,
                    0.35437812,
                    0.5603318
                ],
                "xyz": [
                    2.5886322942205497,
                    0.015880125210467,
                    3.1137135731788548
                ],
                "label": "O",
                "properties": {}
            }
        ]
    },
    "spacegroup": {
        "source": "spglib",
        "symbol": "C2/c",
        "number": 15,
        "point_group": "2/m",
        "crystal_system": "monoclinic",
        "hall": "-C 2yc"
    },
    "dielectric": {
        "epsilon_ionic": [
            [
                3.1594628,
                -3.1e-07,
                -0.35486487
            ],
            [
                -3.1e-07,
                2.63839807,
                -1.3e-07
            ],
            [
                -0.35486487,
                -1.3e-07,
                4.80843927
            ]
        ],
        "epsilon_ionic_avg": 3.53543338,
        "epsilon_ionic_eig": [
            4.88156449613655,
            3.0863375738636956,
            2.6383980699997553
        ],
        "epsilon_electronic": [
            [
                3.04380048,
                0.0,
                -0.27961231
            ],
            [
                0.0,
                3.20958124,
                0.0
            ],
            [
                -0.27961427,
                0.0,
                3.81183548
            ]
        ],
        "epsilon_electronic_avg": 3.3550723999999996,
        "epsilon_electronic_eig": [
            2.9527884732849814,
            3.9028474867150185,
            3.20958124
        ]
    },
    "phonon": {
        "lowest_freq": -0.14202807992828376,
        "frequency": [
            -0.14202807992828376,
            -0.13910200513021975,
            -0.07440359442648094,
            1.7180898397907491,
            2.0058935667893496,
            2.3596603552042814,
            2.735313287307646,
            2.784691484120248,
            2.844525034210553,
            3.218284824253925,
            3.290451569831456,
            3.492093144559537,
            3.8542187267171286,
            4.6545945465642244,
            4.728440539829568,
            4.95982507343542,
            5.059630847444929,
            5.319200163811859,
            5.322228044984783,
            5.631861124592301,
            5.655309065737455,
            6.037516140517228,
            6.064531236065403,
            6.105429971235807,
            6.33472604922663,
            6.516842962763448,
            6.887150655012287,
            7.049157250035399,
            7.065564328506016,
            7.148970139326722,
            7.1492783947021685,
            7.451381961815497,
            7.461487265760491,
            7.996471306399444,
            8.848555049996683,
            9.435192776989977,
            9.542392624983247,
            9.737627385551878,
            10.015316658151116,
            10.201723461139045,
            10.206575764907912,
            10.62286990307352,
            10.827573027120044,
            10.852047603385314,
            13.791118717559813,
            14.66985991666463,
            16.39552622220703,
            16.409582033038824,
            20.14429309680573,
            20.236024556959656,
            24.908672635030943,
            25.569165550706902,
            26.58805575532331,
            26.58898290056792,
            27.416027937039438,
            27.725292101016656,
            28.331114802852454,
            28.44023778718672,
            28.73696147498709,
            28.746346954300233
        ]
    },
    "born_effective_charge": {
        "avg_abs_trace": 1.9385013333333336,
        "tensors": [
            [
                [
                    1.42169,
                    0.0,
                    0.20758
                ],
                [
                    -0.0,
                    1.25846,
                    0.0
                ],
                [
                    0.18878,
                    1e-05,
                    1.09217
                ]
            ],
            [
                [
                    1.42169,
                    -0.0,
                    0.20758
                ],
                [
                    -0.0,
                    1.25844,
                    0.0
                ],
                [
                    0.18878,
                    -1e-05,
                    1.09217
                ]
            ],
            [
                [
                    1.32425,
                    -1e-05,
                    0.18608
                ],
                [
                    -0.0,
                    1.03046,
                    0.0
                ],
                [
                    0.15007,
                    0.0,
                    1.04623
                ]
            ],
            [
                [
                    1.32425,
                    1e-05,
                    0.18608
                ],
                [
                    -0.0,
                    1.03044,
                    0.0
                ],
                [
                    0.15007,
                    -0.0,
                    1.04623
                ]
            ],
            [
                [
                    2.88937,
                    0.1872,
                    -0.74558
                ],
                [
                    -0.39377,
                    3.23414,
                    -0.07735
                ],
                [
                    -0.73458,
                    0.22877,
                    4.82839
                ]
            ],
            [
                [
                    2.88937,
                    -0.1872,
                    -0.74558
                ],
                [
                    0.39391,
                    3.23425,
                    0.07765
                ],
                [
                    -0.73458,
                    -0.22877,
                    4.82839
                ]
            ],
            [
                [
                    2.88928,
                    -0.1873,
                    -0.74475
                ],
                [
                    0.39377,
                    3.23414,
                    0.07735
                ],
                [
                    -0.73449,
                    -0.22831,
                    4.82885
                ]
            ],
            [
                [
                    2.88928,
                    0.1873,
                    -0.74475
                ],
                [
                    -0.39391,
                    3.23425,
                    -0.07765
                ],
                [
                    -0.73449,
                    0.22831,
                    4.82885
                ]
            ],
            [
                [
                    -1.23178,
                    -0.73562,
                    1.14383
                ],
                [
                    -0.56183,
                    -1.43527,
                    1.37341
                ],
                [
                    1.19993,
                    1.94794,
                    -3.98306
                ]
            ],
            [
                [
                    -1.23178,
                    0.73562,
                    1.14383
                ],
                [
                    0.56183,
                    -1.43523,
                    -1.37346
                ],
                [
                    1.19993,
                    -1.94794,
                    -3.98306
                ]
            ],
            [
                [
                    -0.91593,
                    0.6693,
                    -0.09271
                ],
                [
                    0.57274,
                    -2.13638,
                    0.30636
                ],
                [
                    -0.09288,
                    0.2873,
                    -0.90936
                ]
            ],
            [
                [
                    -0.91593,
                    -0.6693,
                    -0.09271
                ],
                [
                    -0.57274,
                    -2.13598,
                    -0.30602
                ],
                [
                    -0.09288,
                    -0.2873,
                    -0.90936
                ]
            ],
            [
                [
                    -2.11444,
                    -0.07274,
                    -0.50321
                ],
                [
                    -0.34251,
                    -0.80718,
                    -0.18369
                ],
                [
                    -0.54192,
                    -0.02105,
                    -1.0056
                ]
            ],
            [
                [
                    -2.11444,
                    0.07274,
                    -0.50321
                ],
                [
                    0.34304,
                    -0.80724,
                    0.18398
                ],
                [
                    -0.54192,
                    0.02105,
                    -1.0056
                ]
            ],
            [
                [
                    -2.1148,
                    0.07261,
                    -0.50279
                ],
                [
                    0.34251,
                    -0.80718,
                    0.18369
                ],
                [
                    -0.54201,
                    0.02105,
                    -1.0054
                ]
            ],
            [
                [
                    -2.1148,
                    -0.07261,
                    -0.50279
                ],
                [
                    -0.34304,
                    -0.80724,
                    -0.18398
                ],
                [
                    -0.54201,
                    -0.02105,
                    -1.0054
                ]
            ],
            [
                [
                    -0.91599,
                    -0.6693,
                    -0.09229
                ],
                [
                    -0.57274,
                    -2.13638,
                    -0.30636
                ],
                [
                    -0.0928,
                    -0.28745,
                    -0.9091
                ]
            ],
            [
                [
                    -0.91599,
                    0.6693,
                    -0.09229
                ],
                [
                    0.57274,
                    -2.13598,
                    0.30602
                ],
                [
                    -0.0928,
                    0.28745,
                    -0.9091
                ]
            ],
            [
                [
                    -1.23166,
                    0.73627,
                    1.14382
                ],
                [
                    0.56183,
                    -1.43527,
                    -1.37341
                ],
                [
                    1.19988,
                    -1.94771,
                    -3.98312
                ]
            ],
            [
                [
                    -1.23166,
                    -0.73627,
                    1.14382
                ],
                [
                    -0.56183,
                    -1.43523,
                    1.37346
                ],
                [
                    1.19988,
                    1.94771,
                    -3.98312
                ]
            ]
        ]
    },
    "band_gap": 3.2792,
    "is_direct": false,
    "formula": "NaVO3"
}