{
    "mp_id": "mp-1209478",
    "nelements": 4,
    "nsites": 20,
    "elements": [
        "Ga",
        "Li",
        "O",
        "Rb"
    ],
    "structure": {
        "@module": "pymatgen.core.structure",
        "@class": "Structure",
        "charge": null,
        "lattice": {
            "matrix": [
                [
                    -2.44956371,
                    4.86580001,
                    5.65267185
                ],
                [
                    2.44956371,
                    -4.86580001,
                    5.65267185
                ],
                [
                    2.44956371,
                    4.86580001,
                    -5.65267185
                ]
            ],
            "a": 7.850418533457142,
            "b": 7.850418533457142,
            "c": 7.850418533457142,
            "alpha": 143.6368158773989,
            "beta": 103.39488095250596,
            "gamma": 87.88324572328607,
            "volume": 269.4987530680038
        },
        "sites": [
            {
                "species": [
                    {
                        "element": "Rb",
                        "occu": 1
                    }
                ],
                "abc": [
                    0.12923659,
                    0.2332691,
                    0.36250469
                ],
                "xyz": [
                    1.142812594485012,
                    1.2576739360287221,
                    5.652671850153723e-06
                ],
                "label": "Rb",
                "properties": {}
            },
            {
                "species": [
                    {
                        "element": "Rb",
                        "occu": 1
                    }
                ],
                "abc": [
                    0.87076341,
                    0.7667309,
                    0.63749531
                ],
                "xyz": [
                    1.306751115514988,
                    3.608126073971279,
                    5.652666197328149
                ],
                "label": "Rb",
                "properties": {}
            },
            {
                "species": [
                    {
                        "element": "Rb",
                        "occu": 1
                    }
                ],
                "abc": [
                    0.62923659,
                    0.2667309,
                    0.89596748
                ],
                "xyz": [
                    1.306748641455641,
                    6.1234787631707315,
                    5.652671752898186e-08
                ],
                "label": "Rb",
                "properties": {}
            },
            {
                "species": [
                    {
                        "element": "Rb",
                        "occu": 1
                    }
                ],
                "abc": [
                    0.37076341,
                    0.7332691,
                    0.10403252
                ],
                "xyz": [
                    1.1428150685443592,
                    -1.2576787531707319,
                    5.6526717934732815
                ],
                "label": "Rb",
                "properties": {}
            },
            {
                "species": [
                    {
                        "element": "Li",
                        "occu": 1
                    }
                ],
                "abc": [
                    0.49006742,
                    0.25,
                    0.24006742
                ],
                "xyz": [
                    1.1102230246251565e-16,
                    2.3362401092733487,
                    2.8263359250000004
                ],
                "label": "Li",
                "properties": {}
            },
            {
                "species": [
                    {
                        "element": "Li",
                        "occu": 1
                    }
                ],
                "abc": [
                    0.50993258,
                    0.75,
                    0.75993258
                ],
                "xyz": [
                    2.4495637100000005,
                    2.5295599007266514,
                    2.8263359250000004
                ],
                "label": "Li",
                "properties": {}
            },
            {
                "species": [
                    {
                        "element": "Li",
                        "occu": 1
                    }
                ],
                "abc": [
                    0.00993258,
                    0.25,
                    0.75993258
                ],
                "xyz": [
                    2.44956371,
                    2.5295599007266514,
                    -2.8263359249999995
                ],
                "label": "Li",
                "properties": {}
            },
            {
                "species": [
                    {
                        "element": "Li",
                        "occu": 1
                    }
                ],
                "abc": [
                    0.99006742,
                    0.75,
                    0.24006742
                ],
                "xyz": [
                    0.0,
                    2.336240109273349,
                    8.479007775
                ],
                "label": "Li",
                "properties": {}
            },
            {
                "species": [
                    {
                        "element": "Li",
                        "occu": 1
                    }
                ],
                "abc": [
                    0.25,
                    0.25,
                    0.0
                ],
                "xyz": [
                    0.0,
                    0.0,
                    2.826335925
                ],
                "label": "Li",
                "properties": {}
            },
            {
                "species": [
                    {
                        "element": "Li",
                        "occu": 1
                    }
                ],
                "abc": [
                    0.75,
                    0.75,
                    0.0
                ],
                "xyz": [
                    0.0,
                    0.0,
                    8.479007775
                ],
                "label": "Li",
                "properties": {}
            },
            {
                "species": [
                    {
                        "element": "Ga",
                        "occu": 1
                    }
                ],
                "abc": [
                    0.25,
                    0.75,
                    0.5
                ],
                "xyz": [
                    2.4495637100000005,
                    4.440892098500626e-16,
                    2.826335925
                ],
                "label": "Ga",
                "properties": {}
            },
            {
                "species": [
                    {
                        "element": "Ga",
                        "occu": 1
                    }
                ],
                "abc": [
                    0.75,
                    0.25,
                    0.5
                ],
                "xyz": [
                    -2.220446049250313e-16,
                    4.865800009999999,
                    2.826335925
                ],
                "label": "Ga",
                "properties": {}
            },
            {
                "species": [
                    {
                        "element": "O",
                        "occu": 1
                    }
                ],
                "abc": [
                    0.45025437,
                    0.59615807,
                    0.38418828
                ],
                "xyz": [
                    1.298494077170046,
                    1.1594451117468458,
                    3.7433358676218957
                ],
                "label": "O",
                "properties": {}
            },
            {
                "species": [
                    {
                        "element": "O",
                        "occu": 1
                    }
                ],
                "abc": [
                    0.54974563,
                    0.40384193,
                    0.61581172
                ],
                "xyz": [
                    1.1510696328299543,
                    3.706354898253154,
                    1.9093359823781046
                ],
                "label": "O",
                "properties": {}
            },
            {
                "species": [
                    {
                        "element": "O",
                        "occu": 1
                    }
                ],
                "abc": [
                    0.21197079,
                    0.06606609,
                    0.61581172
                ],
                "xyz": [
                    1.1510671832662442,
                    3.706359764053164,
                    -1.9093303297062536
                ],
                "label": "O",
                "properties": {}
            },
            {
                "species": [
                    {
                        "element": "O",
                        "occu": 1
                    }
                ],
                "abc": [
                    0.28802921,
                    0.90384193,
                    0.8540963
                ],
                "xyz": [
                    3.600635792393664,
                    1.1594402459468363,
                    1.9093303297062532
                ],
                "label": "O",
                "properties": {}
            },
            {
                "species": [
                    {
                        "element": "O",
                        "occu": 1
                    }
                ],
                "abc": [
                    0.78802921,
                    0.93393391,
                    0.38418828
                ],
                "xyz": [
                    1.2984965267337558,
                    1.1594402459468354,
                    7.562002179706255
                ],
                "label": "O",
                "properties": {}
            },
            {
                "species": [
                    {
                        "element": "O",
                        "occu": 1
                    }
                ],
                "abc": [
                    0.71197079,
                    0.09615807,
                    0.1459037
                ],
                "xyz": [
                    -1.151072082393664,
                    3.706359764053164,
                    3.7433415202937463
                ],
                "label": "O",
                "properties": {}
            },
            {
                "species": [
                    {
                        "element": "O",
                        "occu": 1
                    }
                ],
                "abc": [
                    0.04974563,
                    0.43393391,
                    0.1459037
                ],
                "xyz": [
                    1.2984940771700457,
                    -1.1594451117468454,
                    1.9093359823781038
                ],
                "label": "O",
                "properties": {}
            },
            {
                "species": [
                    {
                        "element": "O",
                        "occu": 1
                    }
                ],
                "abc": [
                    0.95025437,
                    0.56606609,
                    0.8540963
                ],
                "xyz": [
                    1.1510696328299541,
                    6.025245121746846,
                    3.7433358676218953
                ],
                "label": "O",
                "properties": {}
            }
        ]
    },
    "spacegroup": {
        "source": "spglib",
        "symbol": "Ibam",
        "number": 72,
        "point_group": "mmm",
        "crystal_system": "orthorhombic",
        "hall": "-I 2 2c"
    },
    "dielectric": {
        "epsilon_ionic": [
            [
                11.50406985,
                -0.0,
                -0.0
            ],
            [
                -0.0,
                10.94126555,
                0.0
            ],
            [
                -0.0,
                0.0,
                6.1271663
            ]
        ],
        "epsilon_ionic_avg": 9.524167233333333,
        "epsilon_ionic_eig": [
            11.50406985,
            10.94126555,
            6.1271663
        ],
        "epsilon_electronic": [
            [
                3.09994704,
                0.0,
                0.0
            ],
            [
                -0.0,
                3.10096717,
                0.0
            ],
            [
                0.0,
                0.0,
                3.11798683
            ]
        ],
        "epsilon_electronic_avg": 3.1063003466666665,
        "epsilon_electronic_eig": [
            3.09994704,
            3.10096717,
            3.11798683
        ]
    },
    "phonon": {
        "lowest_freq": -0.06698512958376555,
        "frequency": [
            -0.06698512958376555,
            -0.042373899480526875,
            -0.01968337899199952,
            1.6032657466166456,
            1.6294324667813016,
            2.090497237819402,
            2.113571870170275,
            2.1832241687536778,
            2.4338699829716024,
            2.4583841559164132,
            2.5406122361395957,
            2.5851121213821844,
            2.787327719948041,
            3.04175433143697,
            3.424499739214273,
            3.625697432132314,
            3.8269913462451055,
            4.649634664754851,
            5.04006222316147,
            5.622416184802997,
            7.1883613407146205,
            7.277805788372576,
            7.499483042475997,
            7.629488150907062,
            8.114559983950594,
            8.167348502501701,
            8.318964727022367,
            9.157208654875326,
            9.291116752174654,
            9.3652359527201,
            9.564181944024552,
            9.801795958418781,
            9.974470481402651,
            10.174433510822015,
            10.517730600485592,
            10.602018898815633,
            10.718335345527503,
            11.301957343873536,
            11.483595639776254,
            12.636906489679939,
            12.792333291103004,
            12.807725547362182,
            12.839496041602104,
            13.672075077316984,
            14.51333451302714,
            15.434953731472062,
            15.850141242344106,
            15.931845067367647,
            16.22998719811159,
            16.29343317218558,
            16.322777633330336,
            16.675652003227043,
            16.783972729532525,
            16.88250640969876,
            17.81975820226847,
            18.236876861865237,
            18.541912750189404,
            18.75291716718486,
            18.896196207280223,
            19.22783004591959
        ]
    },
    "born_effective_charge": {
        "avg_abs_trace": 1.4919383333333331,
        "tensors": [
            [
                [
                    1.18738,
                    -0.08861,
                    -0.0
                ],
                [
                    -0.00092,
                    1.19198,
                    -0.0
                ],
                [
                    -2e-05,
                    4e-05,
                    1.38066
                ]
            ],
            [
                [
                    1.18737,
                    -0.08857,
                    -0.0
                ],
                [
                    -0.00091,
                    1.19189,
                    -0.0
                ],
                [
                    2e-05,
                    -4e-05,
                    1.38066
                ]
            ],
            [
                [
                    1.18737,
                    0.08857,
                    -0.0
                ],
                [
                    0.00092,
                    1.19198,
                    -0.0
                ],
                [
                    2e-05,
                    4e-05,
                    1.38066
                ]
            ],
            [
                [
                    1.18738,
                    0.08861,
                    -0.0
                ],
                [
                    0.00091,
                    1.19189,
                    -0.0
                ],
                [
                    -2e-05,
                    -4e-05,
                    1.38066
                ]
            ],
            [
                [
                    0.95912,
                    -0.0,
                    0.13676
                ],
                [
                    -0.0,
                    1.1398,
                    -0.0
                ],
                [
                    0.00199,
                    -0.0,
                    0.69648
                ]
            ],
            [
                [
                    0.95912,
                    0.0,
                    0.13676
                ],
                [
                    -0.0,
                    1.13979,
                    -0.0
                ],
                [
                    0.00199,
                    0.0,
                    0.69648
                ]
            ],
            [
                [
                    0.95912,
                    0.0,
                    -0.13676
                ],
                [
                    -0.0,
                    1.13979,
                    -0.0
                ],
                [
                    -0.00199,
                    0.0,
                    0.69648
                ]
            ],
            [
                [
                    0.95912,
                    -0.0,
                    -0.13676
                ],
                [
                    -0.0,
                    1.1398,
                    -0.0
                ],
                [
                    -0.00199,
                    -0.0,
                    0.69648
                ]
            ],
            [
                [
                    1.12634,
                    0.0,
                    -0.0
                ],
                [
                    -0.0,
                    0.73576,
                    -0.0
                ],
                [
                    0.0,
                    0.0,
                    0.67327
                ]
            ],
            [
                [
                    1.12634,
                    0.0,
                    -0.0
                ],
                [
                    -0.0,
                    0.73576,
                    -0.0
                ],
                [
                    0.0,
                    0.0,
                    0.67327
                ]
            ],
            [
                [
                    2.40969,
                    0.0,
                    -0.0
                ],
                [
                    -0.0,
                    2.37017,
                    -0.0
                ],
                [
                    0.0,
                    0.0,
                    1.95311
                ]
            ],
            [
                [
                    2.40969,
                    0.0,
                    -0.0
                ],
                [
                    -0.0,
                    2.37017,
                    -0.0
                ],
                [
                    0.0,
                    0.0,
                    1.95311
                ]
            ],
            [
                [
                    -1.95727,
                    0.2244,
                    0.09512
                ],
                [
                    0.2318,
                    -1.94236,
                    -0.14583
                ],
                [
                    0.2451,
                    -0.25329,
                    -1.69515
                ]
            ],
            [
                [
                    -1.95725,
                    0.2244,
                    0.09512
                ],
                [
                    0.23183,
                    -1.94233,
                    -0.14584
                ],
                [
                    0.2451,
                    -0.2533,
                    -1.69518
                ]
            ],
            [
                [
                    -1.95725,
                    0.2244,
                    -0.09512
                ],
                [
                    0.23183,
                    -1.94233,
                    0.14584
                ],
                [
                    -0.2451,
                    0.25329,
                    -1.69515
                ]
            ],
            [
                [
                    -1.95725,
                    -0.2244,
                    0.09512
                ],
                [
                    -0.2318,
                    -1.94236,
                    0.14583
                ],
                [
                    0.2451,
                    0.2533,
                    -1.69518
                ]
            ],
            [
                [
                    -1.95727,
                    0.2244,
                    -0.09512
                ],
                [
                    0.2318,
                    -1.94236,
                    0.14583
                ],
                [
                    -0.2451,
                    0.2533,
                    -1.69518
                ]
            ],
            [
                [
                    -1.95727,
                    -0.2244,
                    0.09512
                ],
                [
                    -0.23183,
                    -1.94233,
                    0.14584
                ],
                [
                    0.2451,
                    0.25329,
                    -1.69515
                ]
            ],
            [
                [
                    -1.95727,
                    -0.2244,
                    -0.09512
                ],
                [
                    -0.23183,
                    -1.94233,
                    -0.14584
                ],
                [
                    -0.2451,
                    -0.2533,
                    -1.69518
                ]
            ],
            [
                [
                    -1.95725,
                    -0.2244,
                    -0.09512
                ],
                [
                    -0.2318,
                    -1.94236,
                    -0.14583
                ],
                [
                    -0.2451,
                    -0.25329,
                    -1.69515
                ]
            ]
        ]
    },
    "band_gap": 3.5936000000000003,
    "is_direct": false,
    "formula": "Rb2Li3GaO4"
}