{
    "mp_id": "mp-1080625",
    "nelements": 4,
    "nsites": 10,
    "elements": [
        "Li",
        "O",
        "Re",
        "Sr"
    ],
    "structure": {
        "@module": "pymatgen.core.structure",
        "@class": "Structure",
        "charge": null,
        "lattice": {
            "matrix": [
                [
                    -2.75825909,
                    2.75825912,
                    3.9910518
                ],
                [
                    2.75825909,
                    -2.75825912,
                    3.9910518
                ],
                [
                    2.75825912,
                    2.75825909,
                    -3.9910518
                ]
            ],
            "a": 5.580724061527683,
            "b": 5.580724061527683,
            "c": 5.580724061527683,
            "alpha": 120.75971178621948,
            "beta": 120.75971178621948,
            "gamma": 88.68910139262637,
            "volume": 121.45558126280483
        },
        "sites": [
            {
                "species": [
                    {
                        "element": "Sr",
                        "occu": 1
                    }
                ],
                "abc": [
                    0.25,
                    0.75,
                    0.5
                ],
                "xyz": [
                    2.7582591050000005,
                    -1.4999999908837935e-08,
                    1.9955259
                ],
                "label": "Sr",
                "properties": {}
            },
            {
                "species": [
                    {
                        "element": "Sr",
                        "occu": 1
                    }
                ],
                "abc": [
                    0.75,
                    0.25,
                    0.5
                ],
                "xyz": [
                    1.499999968679333e-08,
                    2.758259105,
                    1.9955259
                ],
                "label": "Sr",
                "properties": {}
            },
            {
                "species": [
                    {
                        "element": "Li",
                        "occu": 1
                    }
                ],
                "abc": [
                    0.5,
                    0.5,
                    0.0
                ],
                "xyz": [
                    0.0,
                    0.0,
                    3.9910518
                ],
                "label": "Li",
                "properties": {}
            },
            {
                "species": [
                    {
                        "element": "Re",
                        "occu": 1
                    }
                ],
                "abc": [
                    0.0,
                    0.0,
                    0.0
                ],
                "xyz": [
                    0.0,
                    0.0,
                    0.0
                ],
                "label": "Re",
                "properties": {}
            },
            {
                "species": [
                    {
                        "element": "O",
                        "occu": 1
                    }
                ],
                "abc": [
                    0.71775329,
                    0.8068974,
                    0.5246507
                ],
                "xyz": [
                    1.6930051298168436,
                    1.20124000794808,
                    3.9910517600894817
                ],
                "label": "O",
                "properties": {}
            },
            {
                "species": [
                    {
                        "element": "O",
                        "occu": 1
                    }
                ],
                "abc": [
                    0.28224671,
                    0.1931026,
                    0.4753493
                ],
                "xyz": [
                    1.0652539901831561,
                    1.5570190820519203,
                    3.991051822360703e-08
                ],
                "label": "O",
                "properties": {}
            },
            {
                "species": [
                    {
                        "element": "O",
                        "occu": 1
                    }
                ],
                "abc": [
                    0.8068974,
                    0.28224671,
                    0.08914411
                ],
                "xyz": [
                    -1.201239980365489,
                    1.6930051022342523,
                    3.9910518
                ],
                "label": "O",
                "properties": {}
            },
            {
                "species": [
                    {
                        "element": "O",
                        "occu": 1
                    }
                ],
                "abc": [
                    0.1931026,
                    0.71775329,
                    0.91085589
                ],
                "xyz": [
                    3.959499100365489,
                    1.0652539877657474,
                    0.0
                ],
                "label": "O",
                "properties": {}
            },
            {
                "species": [
                    {
                        "element": "O",
                        "occu": 1
                    }
                ],
                "abc": [
                    0.23738975,
                    0.23738975,
                    0.0
                ],
                "xyz": [
                    0.0,
                    0.0,
                    1.8948695780781002
                ],
                "label": "O",
                "properties": {}
            },
            {
                "species": [
                    {
                        "element": "O",
                        "occu": 1
                    }
                ],
                "abc": [
                    0.76261025,
                    0.76261025,
                    0.0
                ],
                "xyz": [
                    0.0,
                    0.0,
                    6.0872340219219
                ],
                "label": "O",
                "properties": {}
            }
        ]
    },
    "spacegroup": {
        "source": "spglib",
        "symbol": "I4/m",
        "number": 87,
        "point_group": "4/m",
        "crystal_system": "tetragonal",
        "hall": "-I 4"
    },
    "dielectric": {
        "epsilon_ionic": [
            [
                16.89192017,
                -0.00146984,
                8e-08
            ],
            [
                -0.00146984,
                16.90341163,
                0.0
            ],
            [
                8e-08,
                0.0,
                14.48190069
            ]
        ],
        "epsilon_ionic_avg": 16.092410830000002,
        "epsilon_ionic_eig": [
            16.891735146012646,
            16.90359665398736,
            14.481900689999998
        ],
        "epsilon_electronic": [
            [
                4.77775244,
                0.00028157,
                0.0
            ],
            [
                -0.00028157,
                4.77775244,
                -0.0
            ],
            [
                0.0,
                0.0,
                4.810472
            ]
        ],
        "epsilon_electronic_avg": 4.78865896,
        "epsilon_electronic_eig": [
            4.77775244,
            4.77775244,
            4.810472
        ]
    },
    "phonon": {
        "lowest_freq": -0.2068367469933716,
        "frequency": [
            -0.2068367469933716,
            -0.2068367469933716,
            -0.021785436907650446,
            1.6723827093759451,
            1.6723827093759451,
            3.8829201183221183,
            3.8829201183221183,
            4.26443791213269,
            4.425820404574508,
            4.425820404574508,
            4.606432072458691,
            5.351669202352448,
            6.861773483583868,
            6.861773483583868,
            7.671664618077333,
            9.121901184022626,
            9.121901184022626,
            9.161131565694603,
            10.302225849634098,
            10.701674874919489,
            10.701674874919489,
            13.47441512010122,
            13.47441512010122,
            13.484245950920908,
            17.91927148786422,
            18.23400665390209,
            19.57528184534423,
            19.58708972576903,
            19.58708972576903,
            24.223969888541447
        ]
    },
    "born_effective_charge": {
        "avg_abs_trace": 2.775539666666666,
        "tensors": [
            [
                [
                    2.57875,
                    0.12021,
                    6e-05
                ],
                [
                    -0.12051,
                    2.58129,
                    -0.00011
                ],
                [
                    -0.0,
                    0.0,
                    2.79997
                ]
            ],
            [
                [
                    2.57875,
                    0.12021,
                    -6e-05
                ],
                [
                    -0.12051,
                    2.58129,
                    0.00011
                ],
                [
                    -0.0,
                    0.0,
                    2.79997
                ]
            ],
            [
                [
                    1.57891,
                    -0.1563,
                    -0.0
                ],
                [
                    0.15654,
                    1.57816,
                    0.0
                ],
                [
                    -0.0,
                    0.0,
                    1.56549
                ]
            ],
            [
                [
                    7.0028,
                    -0.25308,
                    -0.0
                ],
                [
                    0.25091,
                    7.00034,
                    0.0
                ],
                [
                    -0.0,
                    0.0,
                    6.98738
                ]
            ],
            [
                [
                    -2.00222,
                    -0.83867,
                    -0.0
                ],
                [
                    -0.83434,
                    -3.14119,
                    -0.0
                ],
                [
                    -0.0001,
                    7e-05,
                    -1.80769
                ]
            ],
            [
                [
                    -2.00186,
                    -0.83897,
                    0.0
                ],
                [
                    -0.83414,
                    -3.14149,
                    0.0
                ],
                [
                    0.0001,
                    -7e-05,
                    -1.80769
                ]
            ],
            [
                [
                    -3.14121,
                    0.83417,
                    -0.0
                ],
                [
                    0.83977,
                    -2.00277,
                    0.0
                ],
                [
                    -7e-05,
                    -0.0001,
                    -1.80769
                ]
            ],
            [
                [
                    -3.14149,
                    0.83482,
                    -0.0
                ],
                [
                    0.83912,
                    -2.00276,
                    0.0
                ],
                [
                    7e-05,
                    0.0001,
                    -1.80769
                ]
            ],
            [
                [
                    -1.72621,
                    0.08881,
                    -0.00011
                ],
                [
                    -0.08842,
                    -1.72643,
                    -9e-05
                ],
                [
                    -0.0,
                    0.0,
                    -3.46129
                ]
            ],
            [
                [
                    -1.72621,
                    0.08881,
                    0.00011
                ],
                [
                    -0.08842,
                    -1.72643,
                    9e-05
                ],
                [
                    -0.0,
                    0.0,
                    -3.46077
                ]
            ]
        ]
    },
    "band_gap": 2.0687,
    "is_direct": false,
    "formula": "Sr2LiReO6"
}