{
    "mp_id": "mp-19926",
    "nelements": 4,
    "nsites": 24,
    "elements": [
        "Be",
        "Ge",
        "La",
        "O"
    ],
    "structure": {
        "@module": "pymatgen.core.structure",
        "@class": "Structure",
        "charge": null,
        "lattice": {
            "matrix": [
                [
                    7.67109499,
                    0.0,
                    0.0
                ],
                [
                    0.0,
                    7.67109499,
                    0.0
                ],
                [
                    0.0,
                    0.0,
                    4.93657515
                ]
            ],
            "a": 7.67109499,
            "b": 7.67109499,
            "c": 4.93657515,
            "alpha": 90.0,
            "beta": 90.0,
            "gamma": 90.0,
            "volume": 290.4962121373004
        },
        "sites": [
            {
                "species": [
                    {
                        "element": "La",
                        "occu": 1
                    }
                ],
                "abc": [
                    0.83972997,
                    0.66027003,
                    0.50186526
                ],
                "xyz": [
                    6.441648365819851,
                    5.06499411918015,
                    2.477495571164289
                ],
                "label": "La",
                "properties": {}
            },
            {
                "species": [
                    {
                        "element": "La",
                        "occu": 1
                    }
                ],
                "abc": [
                    0.66027003,
                    0.16027003,
                    0.49813474
                ],
                "xyz": [
                    5.06499411918015,
                    1.2294466241801498,
                    2.4590795788357114
                ],
                "label": "La",
                "properties": {}
            },
            {
                "species": [
                    {
                        "element": "La",
                        "occu": 1
                    }
                ],
                "abc": [
                    0.33972997,
                    0.83972997,
                    0.49813474
                ],
                "xyz": [
                    2.6061008708198505,
                    6.441648365819851,
                    2.4590795788357114
                ],
                "label": "La",
                "properties": {}
            },
            {
                "species": [
                    {
                        "element": "La",
                        "occu": 1
                    }
                ],
                "abc": [
                    0.16027003,
                    0.33972997,
                    0.50186526
                ],
                "xyz": [
                    1.2294466241801498,
                    2.6061008708198505,
                    2.477495571164289
                ],
                "label": "La",
                "properties": {}
            },
            {
                "species": [
                    {
                        "element": "Be",
                        "occu": 1
                    }
                ],
                "abc": [
                    0.86689789,
                    0.36689789,
                    0.03909102
                ],
                "xyz": [
                    6.650056060820571,
                    2.8145085658205713,
                    0.192975757920153
                ],
                "label": "Be",
                "properties": {}
            },
            {
                "species": [
                    {
                        "element": "Be",
                        "occu": 1
                    }
                ],
                "abc": [
                    0.63310211,
                    0.86689789,
                    0.96090898
                ],
                "xyz": [
                    4.856586424179429,
                    6.650056060820571,
                    4.743599392079847
                ],
                "label": "Be",
                "properties": {}
            },
            {
                "species": [
                    {
                        "element": "Be",
                        "occu": 1
                    }
                ],
                "abc": [
                    0.13310211,
                    0.63310211,
                    0.03909102
                ],
                "xyz": [
                    1.0210389291794288,
                    4.856586424179429,
                    0.192975757920153
                ],
                "label": "Be",
                "properties": {}
            },
            {
                "species": [
                    {
                        "element": "Be",
                        "occu": 1
                    }
                ],
                "abc": [
                    0.36689789,
                    0.13310211,
                    0.96090898
                ],
                "xyz": [
                    2.8145085658205713,
                    1.0210389291794288,
                    4.743599392079847
                ],
                "label": "Be",
                "properties": {}
            },
            {
                "species": [
                    {
                        "element": "Ge",
                        "occu": 1
                    }
                ],
                "abc": [
                    0.5,
                    0.5,
                    0.0
                ],
                "xyz": [
                    3.835547495,
                    3.835547495,
                    0.0
                ],
                "label": "Ge",
                "properties": {}
            },
            {
                "species": [
                    {
                        "element": "Ge",
                        "occu": 1
                    }
                ],
                "abc": [
                    0.0,
                    0.0,
                    0.0
                ],
                "xyz": [
                    0.0,
                    0.0,
                    0.0
                ],
                "label": "Ge",
                "properties": {}
            },
            {
                "species": [
                    {
                        "element": "O",
                        "occu": 1
                    }
                ],
                "abc": [
                    0.82434825,
                    0.92240432,
                    0.79673748
                ],
                "xyz": [
                    6.323653730590268,
                    7.075851157906357,
                    3.9331544448416222
                ],
                "label": "O",
                "properties": {}
            },
            {
                "species": [
                    {
                        "element": "O",
                        "occu": 1
                    }
                ],
                "abc": [
                    0.92240432,
                    0.17565175,
                    0.20326252
                ],
                "xyz": [
                    7.075851157906357,
                    1.3474412594097325,
                    1.0034207051583781
                ],
                "label": "O",
                "properties": {}
            },
            {
                "species": [
                    {
                        "element": "O",
                        "occu": 1
                    }
                ],
                "abc": [
                    0.32434825,
                    0.57759568,
                    0.20326252
                ],
                "xyz": [
                    2.4881062355902674,
                    4.430791327093643,
                    1.0034207051583781
                ],
                "label": "O",
                "properties": {}
            },
            {
                "species": [
                    {
                        "element": "O",
                        "occu": 1
                    }
                ],
                "abc": [
                    0.67565175,
                    0.42240432,
                    0.20326252
                ],
                "xyz": [
                    5.182988754409733,
                    3.240303662906357,
                    1.0034207051583781
                ],
                "label": "O",
                "properties": {}
            },
            {
                "species": [
                    {
                        "element": "O",
                        "occu": 1
                    }
                ],
                "abc": [
                    0.42240432,
                    0.32434825,
                    0.79673748
                ],
                "xyz": [
                    3.240303662906357,
                    2.4881062355902674,
                    3.9331544448416222
                ],
                "label": "O",
                "properties": {}
            },
            {
                "species": [
                    {
                        "element": "O",
                        "occu": 1
                    }
                ],
                "abc": [
                    0.57759568,
                    0.67565175,
                    0.79673748
                ],
                "xyz": [
                    4.430791327093643,
                    5.182988754409733,
                    3.9331544448416222
                ],
                "label": "O",
                "properties": {}
            },
            {
                "species": [
                    {
                        "element": "O",
                        "occu": 1
                    }
                ],
                "abc": [
                    0.5,
                    0.0,
                    0.83249057
                ],
                "xyz": [
                    3.835547495,
                    0.0,
                    4.109652260471336
                ],
                "label": "O",
                "properties": {}
            },
            {
                "species": [
                    {
                        "element": "O",
                        "occu": 1
                    }
                ],
                "abc": [
                    0.0,
                    0.5,
                    0.16750943
                ],
                "xyz": [
                    0.0,
                    3.835547495,
                    0.8269228895286644
                ],
                "label": "O",
                "properties": {}
            },
            {
                "species": [
                    {
                        "element": "O",
                        "occu": 1
                    }
                ],
                "abc": [
                    0.35766637,
                    0.14233363,
                    0.28198664
                ],
                "xyz": [
                    2.7436926989984864,
                    1.0918547960015137,
                    1.3920482396559961
                ],
                "label": "O",
                "properties": {}
            },
            {
                "species": [
                    {
                        "element": "O",
                        "occu": 1
                    }
                ],
                "abc": [
                    0.14233363,
                    0.64233363,
                    0.71801336
                ],
                "xyz": [
                    1.0918547960015137,
                    4.927402291001513,
                    3.5445269103440045
                ],
                "label": "O",
                "properties": {}
            },
            {
                "species": [
                    {
                        "element": "O",
                        "occu": 1
                    }
                ],
                "abc": [
                    0.85766637,
                    0.35766637,
                    0.71801336
                ],
                "xyz": [
                    6.579240193998487,
                    2.7436926989984864,
                    3.5445269103440045
                ],
                "label": "O",
                "properties": {}
            },
            {
                "species": [
                    {
                        "element": "O",
                        "occu": 1
                    }
                ],
                "abc": [
                    0.64233363,
                    0.85766637,
                    0.28198664
                ],
                "xyz": [
                    4.927402291001513,
                    6.579240193998487,
                    1.3920482396559961
                ],
                "label": "O",
                "properties": {}
            },
            {
                "species": [
                    {
                        "element": "O",
                        "occu": 1
                    }
                ],
                "abc": [
                    0.17565175,
                    0.07759568,
                    0.79673748
                ],
                "xyz": [
                    1.3474412594097325,
                    0.5952438320936432,
                    3.9331544448416222
                ],
                "label": "O",
                "properties": {}
            },
            {
                "species": [
                    {
                        "element": "O",
                        "occu": 1
                    }
                ],
                "abc": [
                    0.07759568,
                    0.82434825,
                    0.20326252
                ],
                "xyz": [
                    0.5952438320936432,
                    6.323653730590268,
                    1.0034207051583781
                ],
                "label": "O",
                "properties": {}
            }
        ]
    },
    "spacegroup": {
        "source": "spglib",
        "symbol": "P-42_1m",
        "number": 113,
        "point_group": "-42m",
        "crystal_system": "tetragonal",
        "hall": "P -4 2ab"
    },
    "dielectric": {
        "epsilon_ionic": [
            [
                10.8965235,
                -0.0,
                -0.0
            ],
            [
                -0.0,
                10.89684604,
                -0.0
            ],
            [
                -0.0,
                -0.0,
                6.84680283
            ]
        ],
        "epsilon_ionic_avg": 9.546724123333334,
        "epsilon_ionic_eig": [
            10.8965235,
            10.89684604,
            6.84680283
        ],
        "epsilon_electronic": [
            [
                4.03405378,
                0.0,
                0.0
            ],
            [
                0.0,
                4.03405378,
                0.0
            ],
            [
                0.0,
                0.0,
                3.79986685
            ]
        ],
        "epsilon_electronic_avg": 3.9559914699999994,
        "epsilon_electronic_eig": [
            4.03405378,
            4.03405378,
            3.79986685
        ]
    },
    "phonon": {
        "lowest_freq": -0.057606028752020845,
        "frequency": [
            -0.057606028752020845,
            -0.057606028752020845,
            -0.03130972862232992,
            2.7918736129970307,
            2.7918736129970307,
            2.8303797916189213,
            3.2456527084380506,
            3.921635753089854,
            4.025347898762973,
            4.025347898762973,
            4.494305125071949,
            4.987541782896405,
            4.987541782896405,
            5.137919462673626,
            5.637659574560435,
            5.646189240433662,
            5.646189240433662,
            6.437881875901198,
            6.628849260941515,
            6.665973941570282,
            6.874252581145827,
            6.874252581145827,
            7.840556752595752,
            7.840556752595752,
            8.105290066461519,
            8.105290066461519,
            8.106637001865943,
            8.126273944252306,
            8.31218227552702,
            8.460467360862019,
            8.848229510637927,
            8.848229510637927,
            9.109529743657854,
            9.786558307534394,
            9.786558307534394,
            9.857873194544002,
            10.497688514730262,
            10.877158581612807,
            10.877158581612807,
            12.253084726195805,
            12.324741337211801,
            12.627167360584261,
            12.627167360584261,
            12.71602192660558,
            12.912983899114181,
            13.599487800726296,
            14.116494605982682,
            14.116494605982682,
            15.77277362706489,
            15.77277362706489,
            16.15255693438497,
            17.034584464999313,
            17.518704099973686,
            17.585424589980917,
            17.96646790280545,
            17.96646790280545,
            20.937325580431903,
            21.413386581916978,
            21.571126550198684,
            21.571126550198684,
            21.74248764258408,
            21.82758032099713,
            21.82758032099713,
            22.738574613055153,
            23.725614742788448,
            23.725614742788448,
            23.81982514847446,
            23.937708091612535,
            25.618816303922575,
            25.980457520693236,
            27.575891598203913,
            27.575891598203913
        ]
    },
    "born_effective_charge": {
        "avg_abs_trace": 2.539613888888889,
        "tensors": [
            [
                [
                    4.21231,
                    -0.46921,
                    -0.04599
                ],
                [
                    -0.46931,
                    4.21228,
                    0.04601
                ],
                [
                    -0.33825,
                    0.33825,
                    3.69084
                ]
            ],
            [
                [
                    4.21219,
                    0.46925,
                    -0.046
                ],
                [
                    0.46931,
                    4.21228,
                    -0.04601
                ],
                [
                    -0.33832,
                    -0.33832,
                    3.69088
                ]
            ],
            [
                [
                    4.21231,
                    0.46921,
                    0.04599
                ],
                [
                    0.46917,
                    4.2124,
                    0.04597
                ],
                [
                    0.33832,
                    0.33832,
                    3.69088
                ]
            ],
            [
                [
                    4.21219,
                    -0.46925,
                    0.046
                ],
                [
                    -0.46917,
                    4.2124,
                    -0.04597
                ],
                [
                    0.33825,
                    -0.33825,
                    3.69084
                ]
            ],
            [
                [
                    1.69929,
                    -0.04987,
                    -0.02465
                ],
                [
                    -0.04987,
                    1.69927,
                    -0.02465
                ],
                [
                    0.17729,
                    0.17729,
                    2.08742
                ]
            ],
            [
                [
                    1.69928,
                    0.04983,
                    -0.02462
                ],
                [
                    0.04987,
                    1.69927,
                    0.02465
                ],
                [
                    0.17722,
                    -0.17722,
                    2.0874
                ]
            ],
            [
                [
                    1.69928,
                    -0.04983,
                    0.02462
                ],
                [
                    -0.04983,
                    1.69927,
                    0.02462
                ],
                [
                    -0.17729,
                    -0.17729,
                    2.08742
                ]
            ],
            [
                [
                    1.69929,
                    0.04987,
                    0.02465
                ],
                [
                    0.04983,
                    1.69927,
                    -0.02462
                ],
                [
                    -0.17722,
                    0.17722,
                    2.0874
                ]
            ],
            [
                [
                    3.54786,
                    0.10736,
                    2e-05
                ],
                [
                    -0.10736,
                    3.54782,
                    -3e-05
                ],
                [
                    0.0,
                    0.0,
                    3.41455
                ]
            ],
            [
                [
                    3.54786,
                    -0.10736,
                    -2e-05
                ],
                [
                    0.10736,
                    3.54782,
                    3e-05
                ],
                [
                    0.0,
                    0.0,
                    3.41455
                ]
            ],
            [
                [
                    -2.21763,
                    -0.16468,
                    -0.25774
                ],
                [
                    -0.21534,
                    -2.02362,
                    -0.26957
                ],
                [
                    -0.34278,
                    -0.26225,
                    -1.99944
                ]
            ],
            [
                [
                    -2.02362,
                    0.21532,
                    0.26957
                ],
                [
                    0.16472,
                    -2.21758,
                    -0.25766
                ],
                [
                    0.26223,
                    -0.34278,
                    -1.99947
                ]
            ],
            [
                [
                    -2.21763,
                    0.16468,
                    0.25774
                ],
                [
                    0.21533,
                    -2.02366,
                    -0.26959
                ],
                [
                    0.34278,
                    -0.26223,
                    -1.99947
                ]
            ],
            [
                [
                    -2.21756,
                    0.16472,
                    -0.25766
                ],
                [
                    0.21534,
                    -2.02362,
                    0.26957
                ],
                [
                    -0.34278,
                    0.26223,
                    -1.99947
                ]
            ],
            [
                [
                    -2.02362,
                    -0.21532,
                    -0.26957
                ],
                [
                    -0.1647,
                    -2.21765,
                    -0.25772
                ],
                [
                    -0.26225,
                    -0.34278,
                    -1.99944
                ]
            ],
            [
                [
                    -2.02366,
                    -0.21534,
                    0.26959
                ],
                [
                    -0.16472,
                    -2.21758,
                    0.25766
                ],
                [
                    0.26225,
                    0.34278,
                    -1.99944
                ]
            ],
            [
                [
                    -2.23448,
                    0.02057,
                    -5e-05
                ],
                [
                    0.02057,
                    -2.23451,
                    -6e-05
                ],
                [
                    0.0,
                    0.0,
                    -2.27741
                ]
            ],
            [
                [
                    -2.23448,
                    -0.02057,
                    5e-05
                ],
                [
                    -0.02057,
                    -2.23451,
                    6e-05
                ],
                [
                    0.0,
                    0.0,
                    -2.27739
                ]
            ],
            [
                [
                    -2.32697,
                    0.36098,
                    0.03884
                ],
                [
                    0.36091,
                    -2.32702,
                    -0.03881
                ],
                [
                    0.05143,
                    -0.05143,
                    -2.34786
                ]
            ],
            [
                [
                    -2.327,
                    -0.36094,
                    0.0388
                ],
                [
                    -0.36091,
                    -2.32702,
                    0.03881
                ],
                [
                    0.05141,
                    0.05141,
                    -2.348
                ]
            ],
            [
                [
                    -2.32697,
                    -0.36098,
                    -0.03884
                ],
                [
                    -0.36098,
                    -2.327,
                    -0.03885
                ],
                [
                    -0.05141,
                    -0.05141,
                    -2.348
                ]
            ],
            [
                [
                    -2.327,
                    0.36094,
                    -0.0388
                ],
                [
                    0.36098,
                    -2.327,
                    0.03885
                ],
                [
                    -0.05143,
                    0.05143,
                    -2.34786
                ]
            ],
            [
                [
                    -2.21756,
                    -0.16472,
                    0.25766
                ],
                [
                    -0.21533,
                    -2.02366,
                    0.26959
                ],
                [
                    0.34278,
                    0.26225,
                    -1.99944
                ]
            ],
            [
                [
                    -2.02366,
                    0.21534,
                    -0.26959
                ],
                [
                    0.1647,
                    -2.21765,
                    0.25772
                ],
                [
                    -0.26223,
                    0.34278,
                    -1.99947
                ]
            ]
        ]
    },
    "band_gap": 3.9618,
    "is_direct": true,
    "formula": "La2Be2GeO7"
}