{
    "mp_id": "mp-1227669",
    "nelements": 4,
    "nsites": 27,
    "elements": [
        "Al",
        "Ca",
        "Cr",
        "O"
    ],
    "structure": {
        "@module": "pymatgen.core.structure",
        "@class": "Structure",
        "charge": null,
        "lattice": {
            "matrix": [
                [
                    -4.61378175,
                    4.61378182,
                    4.70043454
                ],
                [
                    4.61378175,
                    -4.61378182,
                    4.70043454
                ],
                [
                    4.61378182,
                    4.61378175,
                    -4.70043454
                ]
            ],
            "a": 8.041644706403074,
            "b": 8.041644706403074,
            "c": 8.041644706403074,
            "alpha": 109.97766455750009,
            "beta": 109.97766455750009,
            "gamma": 108.4630127361972,
            "volume": 400.23226854169656
        },
        "sites": [
            {
                "species": [
                    {
                        "element": "Ca",
                        "occu": 1
                    }
                ],
                "abc": [
                    0.57000822,
                    0.01283866,
                    0.0314974
                ],
                "xyz": [
                    -2.4253366160862617,
                    2.7159809158778487,
                    2.591582139403039
                ],
                "label": "Ca",
                "properties": {}
            },
            {
                "species": [
                    {
                        "element": "Ca",
                        "occu": 1
                    }
                ],
                "abc": [
                    0.98716134,
                    0.01865874,
                    0.55716956
                ],
                "xyz": [
                    -1.8978008341221515,
                    7.0391184360862615,
                    2.108852400596961
                ],
                "label": "Ca",
                "properties": {}
            },
            {
                "species": [
                    {
                        "element": "Ca",
                        "occu": 1
                    }
                ],
                "abc": [
                    0.98134126,
                    0.53851182,
                    0.9685026
                ],
                "xyz": [
                    2.425341299868011,
                    6.51157804034033,
                    2.5915868398375794
                ],
                "label": "Ca",
                "properties": {}
            },
            {
                "species": [
                    {
                        "element": "Ca",
                        "occu": 1
                    }
                ],
                "abc": [
                    0.46148818,
                    0.42999178,
                    0.44283044
                ],
                "xyz": [
                    1.8978055179039006,
                    2.188440520131918,
                    2.1088477001624213
                ],
                "label": "Ca",
                "properties": {}
            },
            {
                "species": [
                    {
                        "element": "Al",
                        "occu": 1
                    }
                ],
                "abc": [
                    0.48043382,
                    0.74664087,
                    0.23743645
                ],
                "xyz": [
                    2.3237012054266764,
                    -0.13274128785104344,
                    4.651729765400809
                ],
                "label": "Al",
                "properties": {}
            },
            {
                "species": [
                    {
                        "element": "Al",
                        "occu": 1
                    }
                ],
                "abc": [
                    0.25,
                    0.75,
                    0.5
                ],
                "xyz": [
                    4.613781785,
                    -3.4999999787288516e-08,
                    2.35021727
                ],
                "label": "Al",
                "properties": {}
            },
            {
                "species": [
                    {
                        "element": "Al",
                        "occu": 1
                    }
                ],
                "abc": [
                    0.75700263,
                    0.51956618,
                    0.26620705
                ],
                "xyz": [
                    0.13274128785104322,
                    2.3237012054266764,
                    4.74913931459919
                ],
                "label": "Al",
                "properties": {}
            },
            {
                "species": [
                    {
                        "element": "Al",
                        "occu": 1
                    }
                ],
                "abc": [
                    0.75,
                    0.25,
                    0.5
                ],
                "xyz": [
                    3.5000000231377726e-08,
                    4.6137817850000005,
                    2.35021727
                ],
                "label": "Al",
                "properties": {}
            },
            {
                "species": [
                    {
                        "element": "Al",
                        "occu": 1
                    }
                ],
                "abc": [
                    0.50920343,
                    0.24299737,
                    0.76256355
                ],
                "xyz": [
                    2.290085182217256,
                    4.746518470207041,
                    -0.04870942802938538
                ],
                "label": "Al",
                "properties": {}
            },
            {
                "species": [
                    {
                        "element": "Al",
                        "occu": 1
                    }
                ],
                "abc": [
                    0.25335913,
                    0.49079657,
                    0.73379295
                ],
                "xyz": [
                    4.481045099792889,
                    2.290075976929322,
                    0.04870942802938538
                ],
                "label": "Al",
                "properties": {}
            },
            {
                "species": [
                    {
                        "element": "Cr",
                        "occu": 1
                    }
                ],
                "abc": [
                    0.0,
                    0.0,
                    0.0
                ],
                "xyz": [
                    0.0,
                    0.0,
                    0.0
                ],
                "label": "Cr",
                "properties": {}
            },
            {
                "species": [
                    {
                        "element": "O",
                        "occu": 1
                    }
                ],
                "abc": [
                    0.41936828,
                    0.99446642,
                    0.72023982
                ],
                "xyz": [
                    5.976406690347017,
                    0.6696519940914709,
                    3.260197330719155
                ],
                "label": "O",
                "properties": {}
            },
            {
                "species": [
                    {
                        "element": "O",
                        "occu": 1
                    }
                ],
                "abc": [
                    0.68631333,
                    0.31911717,
                    0.31488251
                ],
                "xyz": [
                    -0.2413637416041119,
                    3.1469621454140038,
                    3.2458756237235744
                ],
                "label": "O",
                "properties": {}
            },
            {
                "species": [
                    {
                        "element": "O",
                        "occu": 1
                    }
                ],
                "abc": [
                    0.38507148,
                    0.69750583,
                    0.98333951
                ],
                "xyz": [
                    5.97841785622882,
                    3.095409961318426,
                    0.4664607827936118
                ],
                "label": "O",
                "properties": {}
            },
            {
                "species": [
                    {
                        "element": "O",
                        "occu": 1
                    }
                ],
                "abc": [
                    0.68088283,
                    0.99576533,
                    0.36719615
                ],
                "xyz": [
                    3.146962053138368,
                    0.24136374160411278,
                    6.154993456276425
                ],
                "label": "O",
                "properties": {}
            },
            {
                "species": [
                    {
                        "element": "O",
                        "occu": 1
                    }
                ],
                "abc": [
                    0.00553358,
                    0.7257744,
                    0.42490186
                ],
                "xyz": [
                    5.283438427873221,
                    -1.3626295541288371,
                    1.4402419097153847
                ],
                "label": "O",
                "properties": {}
            },
            {
                "species": [
                    {
                        "element": "O",
                        "occu": 1
                    }
                ],
                "abc": [
                    0.30249417,
                    0.28583268,
                    0.68756465
                ],
                "xyz": [
                    3.0954008037548553,
                    3.2491457137712496,
                    -0.46646078279361225
                ],
                "label": "O",
                "properties": {}
            },
            {
                "species": [
                    {
                        "element": "O",
                        "occu": 1
                    }
                ],
                "abc": [
                    0.2742256,
                    0.69912846,
                    0.27976018
                ],
                "xyz": [
                    3.2511614934347324,
                    -0.6696566778732898,
                    3.2601926302846147
                ],
                "label": "O",
                "properties": {}
            },
            {
                "species": [
                    {
                        "element": "O",
                        "occu": 1
                    }
                ],
                "abc": [
                    0.00423467,
                    0.37143082,
                    0.68511749
                ],
                "xyz": [
                    4.855145515466294,
                    1.4668196507238145,
                    -1.4545588692720801
                ],
                "label": "O",
                "properties": {}
            },
            {
                "species": [
                    {
                        "element": "O",
                        "occu": 1
                    }
                ],
                "abc": [
                    0.71416732,
                    0.40173197,
                    0.01666049
                ],
                "xyz": [
                    -1.3646406500105712,
                    1.518376402463395,
                    5.166900023228152
                ],
                "label": "O",
                "properties": {}
            },
            {
                "species": [
                    {
                        "element": "O",
                        "occu": 1
                    }
                ],
                "abc": [
                    0.62856918,
                    0.31368667,
                    0.63280385
                ],
                "xyz": [
                    1.4668197207238145,
                    4.372418054533705,
                    1.4545588692720806
                ],
                "label": "O",
                "properties": {}
            },
            {
                "species": [
                    {
                        "element": "O",
                        "occu": 1
                    }
                ],
                "abc": [
                    0.30087154,
                    0.58063172,
                    0.57509814
                ],
                "xyz": [
                    3.9441297559085298,
                    1.3626248703470176,
                    1.440237209280844
                ],
                "label": "O",
                "properties": {}
            },
            {
                "species": [
                    {
                        "element": "O",
                        "occu": 1
                    }
                ],
                "abc": [
                    0.59826803,
                    0.61492852,
                    0.31243535
                ],
                "xyz": [
                    1.5183764024633946,
                    1.3646406500105703,
                    4.233969056771848
                ],
                "label": "O",
                "properties": {}
            },
            {
                "species": [
                    {
                        "element": "O",
                        "occu": 1
                    }
                ],
                "abc": [
                    0.88587527,
                    0.04456594,
                    0.13288567
                ],
                "xyz": [
                    -3.268512144474208,
                    4.494723170832904,
                    3.7488576077843505
                ],
                "label": "O",
                "properties": {}
            },
            {
                "species": [
                    {
                        "element": "O",
                        "occu": 1
                    }
                ],
                "abc": [
                    0.95543406,
                    0.08831873,
                    0.84130833
                ],
                "xyz": [
                    -0.11906780673066697,
                    7.882293964474279,
                    0.9515769322156484
                ],
                "label": "O",
                "properties": {}
            },
            {
                "species": [
                    {
                        "element": "O",
                        "occu": 1
                    }
                ],
                "abc": [
                    0.91168127,
                    0.7529896,
                    0.86711433
                ],
                "xyz": [
                    3.268507600692458,
                    4.732845012948917,
                    3.748862308218891
                ],
                "label": "O",
                "properties": {}
            },
            {
                "species": [
                    {
                        "element": "O",
                        "occu": 1
                    }
                ],
                "abc": [
                    0.2470104,
                    0.11412473,
                    0.15869167
                ],
                "xyz": [
                    0.119063262948917,
                    1.345274219307542,
                    0.9515722317811081
                ],
                "label": "O",
                "properties": {}
            }
        ]
    },
    "spacegroup": {
        "source": "spglib",
        "symbol": "I-4",
        "number": 82,
        "point_group": "-4",
        "crystal_system": "tetragonal",
        "hall": "I -4"
    },
    "dielectric": {
        "epsilon_ionic": [
            [
                4.88268553,
                -0.00024219,
                -0.00026677
            ],
            [
                -0.00024219,
                4.88356097,
                -3.895e-05
            ],
            [
                -0.00026677,
                -3.895e-05,
                5.98940771
            ]
        ],
        "epsilon_ionic_avg": 5.251884736666665,
        "epsilon_ionic_eig": [
            5.989407775671388,
            4.8826229303584885,
            4.883623503970117
        ],
        "epsilon_electronic": [
            [
                2.81249774,
                6.58e-06,
                0.0
            ],
            [
                -6.58e-06,
                2.81249774,
                0.0
            ],
            [
                0.0,
                0.0,
                2.83209929
            ]
        ],
        "epsilon_electronic_avg": 2.81903159,
        "epsilon_electronic_eig": [
            2.81249774,
            2.81249774,
            2.83209929
        ]
    },
    "phonon": {
        "lowest_freq": -0.1829185134344506,
        "frequency": [
            -0.1829185134344506,
            -0.1829185134344506,
            -0.05124345340939942,
            1.2505019725399749,
            1.2505019725399749,
            2.0640116975445846,
            2.0640116975445846,
            2.2065532439484943,
            2.4235665677710165,
            2.673546710254125,
            2.673546710254125,
            3.190531909525317,
            3.2235793097244243,
            4.173168001813843,
            4.173168001813843,
            4.878283233619792,
            5.259943791448544,
            5.293587771004538,
            5.322753488959479,
            5.322753488959479,
            5.442948402295739,
            6.080425129759667,
            6.086895024636475,
            6.086895024636475,
            6.215596510454242,
            6.93081534511519,
            7.021792570666856,
            7.141011082096542,
            7.141011082096542,
            8.013193190185069,
            8.15127712159807,
            8.452611796786051,
            8.452611796786051,
            8.730516103542085,
            8.730516103542085,
            8.795421609900263,
            9.360721809725215,
            10.006899421459844,
            10.877705544771457,
            11.278411225932155,
            11.278411225932155,
            11.28660532326085,
            11.549562435838851,
            11.610717910903697,
            11.610717910903697,
            11.618217025200206,
            11.925262768556454,
            11.925262768556454,
            12.172041079444325,
            12.338067248054179,
            12.338067248054179,
            13.146341627450735,
            13.304927380145438,
            13.381728120473342,
            14.696495130906923,
            15.00198397254932,
            15.286949343528352,
            15.286949343528352,
            15.60565292684496,
            18.428062737474075,
            18.428062737474075,
            18.62310826093034,
            19.94806756193575,
            20.04606171264198,
            20.04606171264198,
            23.894981349234374,
            24.910207945825533,
            24.910207945825533,
            25.232589752478237,
            25.892213875585963,
            26.072267902934424,
            26.072267902934424,
            26.37263174218925,
            26.457161164389664,
            27.15503733883967,
            27.707721070324997,
            27.89767950075603,
            27.89767950075603,
            28.00484193864166,
            28.134503640451218,
            28.134503640451218
        ]
    },
    "born_effective_charge": {
        "avg_abs_trace": 2.0227286419753088,
        "tensors": [
            [
                [
                    2.34516,
                    -0.11922,
                    -0.00559
                ],
                [
                    0.05456,
                    2.49268,
                    -0.10317
                ],
                [
                    0.01648,
                    0.06617,
                    2.45193
                ]
            ],
            [
                [
                    2.49249,
                    -0.05484,
                    0.10341
                ],
                [
                    0.11912,
                    2.34533,
                    -0.00575
                ],
                [
                    -0.066,
                    0.01641,
                    2.45183
                ]
            ],
            [
                [
                    2.34491,
                    -0.11929,
                    0.00525
                ],
                [
                    0.05444,
                    2.4928,
                    0.10329
                ],
                [
                    -0.01648,
                    -0.06617,
                    2.45193
                ]
            ],
            [
                [
                    2.49276,
                    -0.05472,
                    -0.10328
                ],
                [
                    0.11922,
                    2.34507,
                    0.00531
                ],
                [
                    0.066,
                    -0.01641,
                    2.45183
                ]
            ],
            [
                [
                    2.2208,
                    -0.03405,
                    -0.10524
                ],
                [
                    -0.01243,
                    2.53174,
                    0.02893
                ],
                [
                    -0.03168,
                    -0.03719,
                    2.56591
                ]
            ],
            [
                [
                    2.53283,
                    -0.00803,
                    -0.00029
                ],
                [
                    0.00774,
                    2.5327,
                    -9e-05
                ],
                [
                    -0.0,
                    0.0,
                    2.31559
                ]
            ],
            [
                [
                    2.53156,
                    0.01255,
                    0.02892
                ],
                [
                    0.03386,
                    2.22088,
                    0.10533
                ],
                [
                    -0.0373,
                    0.0308,
                    2.56574
                ]
            ],
            [
                [
                    2.70834,
                    0.04701,
                    -4e-05
                ],
                [
                    -0.04711,
                    2.70824,
                    -7e-05
                ],
                [
                    -0.0,
                    0.0,
                    2.23561
                ]
            ],
            [
                [
                    2.22101,
                    -0.0342,
                    0.10523
                ],
                [
                    -0.01269,
                    2.53199,
                    -0.02929
                ],
                [
                    0.03168,
                    0.03719,
                    2.56591
                ]
            ],
            [
                [
                    2.53156,
                    0.01236,
                    -0.02962
                ],
                [
                    0.034,
                    2.22063,
                    -0.10526
                ],
                [
                    0.0373,
                    -0.0308,
                    2.56574
                ]
            ],
            [
                [
                    2.79184,
                    0.18717,
                    -0.0012
                ],
                [
                    -0.1878,
                    2.79041,
                    -0.0006
                ],
                [
                    -0.0,
                    0.0,
                    2.87277
                ]
            ],
            [
                [
                    -1.78544,
                    -0.15674,
                    -0.51902
                ],
                [
                    -0.19216,
                    -1.78292,
                    0.11875
                ],
                [
                    -0.51508,
                    0.0883,
                    -1.78154
                ]
            ],
            [
                [
                    -1.89881,
                    0.00969,
                    -0.08692
                ],
                [
                    0.04786,
                    -1.86271,
                    0.38621
                ],
                [
                    -0.02684,
                    0.40271,
                    -1.92058
                ]
            ],
            [
                [
                    -1.86341,
                    -0.47029,
                    -0.04528
                ],
                [
                    -0.48937,
                    -1.71032,
                    0.09855
                ],
                [
                    -0.16328,
                    0.06216,
                    -1.81021
                ]
            ],
            [
                [
                    -1.86267,
                    -0.04754,
                    -0.38604
                ],
                [
                    -0.00974,
                    -1.89895,
                    -0.08676
                ],
                [
                    -0.4025,
                    -0.02695,
                    -1.92057
                ]
            ],
            [
                [
                    -1.78317,
                    0.19278,
                    -0.11845
                ],
                [
                    0.15644,
                    -1.78563,
                    -0.51886
                ],
                [
                    -0.08829,
                    -0.51484,
                    -1.78136
                ]
            ],
            [
                [
                    -1.71023,
                    0.48954,
                    -0.09801
                ],
                [
                    0.47031,
                    -1.86368,
                    -0.04472
                ],
                [
                    -0.06294,
                    -0.16391,
                    -1.81023
                ]
            ],
            [
                [
                    -1.78547,
                    -0.156,
                    0.51885
                ],
                [
                    -0.19283,
                    -1.78285,
                    -0.11866
                ],
                [
                    0.51508,
                    -0.0883,
                    -1.78154
                ]
            ],
            [
                [
                    -1.89875,
                    0.00975,
                    0.08703
                ],
                [
                    0.04719,
                    -1.86253,
                    -0.38584
                ],
                [
                    0.02684,
                    -0.40271,
                    -1.92058
                ]
            ],
            [
                [
                    -1.86356,
                    -0.47024,
                    0.04508
                ],
                [
                    -0.48928,
                    -1.71017,
                    -0.0989
                ],
                [
                    0.16328,
                    -0.06216,
                    -1.81021
                ]
            ],
            [
                [
                    -1.86287,
                    -0.04736,
                    0.38607
                ],
                [
                    -0.00967,
                    -1.89882,
                    0.08694
                ],
                [
                    0.4025,
                    0.02695,
                    -1.92057
                ]
            ],
            [
                [
                    -1.78244,
                    0.19288,
                    0.11921
                ],
                [
                    0.15614,
                    -1.78528,
                    0.51919
                ],
                [
                    0.08829,
                    0.51484,
                    -1.78136
                ]
            ],
            [
                [
                    -1.71001,
                    0.48939,
                    0.09854
                ],
                [
                    0.47024,
                    -1.86369,
                    0.0449
                ],
                [
                    0.06294,
                    0.16391,
                    -1.81023
                ]
            ],
            [
                [
                    -1.9197,
                    0.38597,
                    1.16835
                ],
                [
                    0.31998,
                    -0.78256,
                    -0.29803
                ],
                [
                    1.14292,
                    -0.3354,
                    -1.36142
                ]
            ],
            [
                [
                    -0.78142,
                    -0.31988,
                    0.2967
                ],
                [
                    -0.3831,
                    -1.91941,
                    1.16709
                ],
                [
                    0.33635,
                    1.14328,
                    -1.36147
                ]
            ],
            [
                [
                    -1.92202,
                    0.38316,
                    -1.16648
                ],
                [
                    0.32062,
                    -0.78294,
                    0.29837
                ],
                [
                    -1.14292,
                    0.3354,
                    -1.36142
                ]
            ],
            [
                [
                    -0.78329,
                    -0.31985,
                    -0.2972
                ],
                [
                    -0.38551,
                    -1.92002,
                    -1.16686
                ],
                [
                    -0.33635,
                    -1.14328,
                    -1.36147
                ]
            ]
        ]
    },
    "band_gap": 2.8569,
    "is_direct": false,
    "formula": "Ca4Al6CrO16"
}