{
    "mp_id": "mp-1190486",
    "nelements": 4,
    "nsites": 22,
    "elements": [
        "Li",
        "O",
        "Sr",
        "Ta"
    ],
    "structure": {
        "@module": "pymatgen.core.structure",
        "@class": "Structure",
        "charge": null,
        "lattice": {
            "matrix": [
                [
                    4.89178894,
                    2.82427538,
                    3.72423023
                ],
                [
                    -4.89178894,
                    2.82427538,
                    3.72423023
                ],
                [
                    0.0,
                    -5.64855177,
                    3.72423023
                ]
            ],
            "a": 6.765797902806906,
            "b": 6.765797902806906,
            "c": 6.765798393716442,
            "alpha": 92.60831661110237,
            "beta": 92.60831661110237,
            "gamma": 92.60831919959762,
            "volume": 308.7184422158675
        },
        "sites": [
            {
                "species": [
                    {
                        "element": "Sr",
                        "occu": 1
                    }
                ],
                "abc": [
                    0.89845347,
                    0.60154653,
                    0.25
                ],
                "xyz": [
                    1.4524060853012428,
                    2.824275127499999,
                    6.5174029025
                ],
                "label": "Sr",
                "properties": {}
            },
            {
                "species": [
                    {
                        "element": "Sr",
                        "occu": 1
                    }
                ],
                "abc": [
                    0.60154653,
                    0.25,
                    0.89845347
                ],
                "xyz": [
                    1.7196914273493782,
                    -2.6699590386277103,
                    6.5174029025
                ],
                "label": "Sr",
                "properties": {}
            },
            {
                "species": [
                    {
                        "element": "Sr",
                        "occu": 1
                    }
                ],
                "abc": [
                    0.25,
                    0.89845347,
                    0.60154653
                ],
                "xyz": [
                    -3.172097512650621,
                    -0.15431785637228979,
                    6.5174029025
                ],
                "label": "Sr",
                "properties": {}
            },
            {
                "species": [
                    {
                        "element": "Sr",
                        "occu": 1
                    }
                ],
                "abc": [
                    0.39845347,
                    0.75,
                    0.10154653
                ],
                "xyz": [
                    -1.7196914273493782,
                    2.6699580286277107,
                    4.6552877875
                ],
                "label": "Sr",
                "properties": {}
            },
            {
                "species": [
                    {
                        "element": "Sr",
                        "occu": 1
                    }
                ],
                "abc": [
                    0.75,
                    0.10154653,
                    0.39845347
                ],
                "xyz": [
                    3.1720975126506215,
                    0.1543168463722897,
                    4.6552877875
                ],
                "label": "Sr",
                "properties": {}
            },
            {
                "species": [
                    {
                        "element": "Sr",
                        "occu": 1
                    }
                ],
                "abc": [
                    0.10154653,
                    0.39845347,
                    0.75
                ],
                "xyz": [
                    -1.4524060853012433,
                    -2.8242761375,
                    4.6552877875
                ],
                "label": "Sr",
                "properties": {}
            },
            {
                "species": [
                    {
                        "element": "Li",
                        "occu": 1
                    }
                ],
                "abc": [
                    0.25,
                    0.25,
                    0.25
                ],
                "xyz": [
                    0.0,
                    -2.525000000197508e-07,
                    2.7931726725
                ],
                "label": "Li",
                "properties": {}
            },
            {
                "species": [
                    {
                        "element": "Li",
                        "occu": 1
                    }
                ],
                "abc": [
                    0.75,
                    0.75,
                    0.75
                ],
                "xyz": [
                    0.0,
                    -7.574999996151632e-07,
                    8.3795180175
                ],
                "label": "Li",
                "properties": {}
            },
            {
                "species": [
                    {
                        "element": "Ta",
                        "occu": 1
                    }
                ],
                "abc": [
                    0.0,
                    0.0,
                    0.0
                ],
                "xyz": [
                    0.0,
                    0.0,
                    0.0
                ],
                "label": "Ta",
                "properties": {}
            },
            {
                "species": [
                    {
                        "element": "Ta",
                        "occu": 1
                    }
                ],
                "abc": [
                    0.5,
                    0.5,
                    0.5
                ],
                "xyz": [
                    0.0,
                    -5.050000000395016e-07,
                    5.586345345
                ],
                "label": "Ta",
                "properties": {}
            },
            {
                "species": [
                    {
                        "element": "O",
                        "occu": 1
                    }
                ],
                "abc": [
                    0.07944324,
                    0.95236831,
                    0.28232268
                ],
                "xyz": [
                    -4.2701652028747255,
                    1.3194056836394954,
                    4.8941384256437725
                ],
                "label": "O",
                "properties": {}
            },
            {
                "species": [
                    {
                        "element": "O",
                        "occu": 1
                    }
                ],
                "abc": [
                    0.95236831,
                    0.28232268,
                    0.07944324
                ],
                "xyz": [
                    3.2777218021293315,
                    3.0383681110482916,
                    4.894138425643773
                ],
                "label": "O",
                "properties": {}
            },
            {
                "species": [
                    {
                        "element": "O",
                        "occu": 1
                    }
                ],
                "abc": [
                    0.28232268,
                    0.07944324,
                    0.95236831
                ],
                "xyz": [
                    0.9924434007453935,
                    -4.357775121963359,
                    4.8941384256437725
                ],
                "label": "O",
                "properties": {}
            },
            {
                "species": [
                    {
                        "element": "O",
                        "occu": 1
                    }
                ],
                "abc": [
                    0.57944324,
                    0.78232268,
                    0.45236831
                ],
                "xyz": [
                    -0.9924434007453935,
                    1.2907761430366413,
                    6.7562535406437725
                ],
                "label": "O",
                "properties": {}
            },
            {
                "species": [
                    {
                        "element": "O",
                        "occu": 1
                    }
                ],
                "abc": [
                    0.78232268,
                    0.45236831,
                    0.57944324
                ],
                "xyz": [
                    1.6140671378706677,
                    0.21409222604829115,
                    6.7562535406437725
                ],
                "label": "O",
                "properties": {}
            },
            {
                "species": [
                    {
                        "element": "O",
                        "occu": 1
                    }
                ],
                "abc": [
                    0.45236831,
                    0.57944324,
                    0.78232268
                ],
                "xyz": [
                    -0.6216237371252742,
                    -1.504870201360505,
                    6.7562535406437725
                ],
                "label": "O",
                "properties": {}
            },
            {
                "species": [
                    {
                        "element": "O",
                        "occu": 1
                    }
                ],
                "abc": [
                    0.92055676,
                    0.04763169,
                    0.71767732
                ],
                "xyz": [
                    4.2701652028747255,
                    -1.3194066936394955,
                    6.278552264356227
                ],
                "label": "O",
                "properties": {}
            },
            {
                "species": [
                    {
                        "element": "O",
                        "occu": 1
                    }
                ],
                "abc": [
                    0.04763169,
                    0.71767732,
                    0.92055676
                ],
                "xyz": [
                    -3.277721802129332,
                    -3.0383691210482917,
                    6.278552264356227
                ],
                "label": "O",
                "properties": {}
            },
            {
                "species": [
                    {
                        "element": "O",
                        "occu": 1
                    }
                ],
                "abc": [
                    0.71767732,
                    0.92055676,
                    0.04763169
                ],
                "xyz": [
                    -0.9924434007453939,
                    4.357774111963359,
                    6.278552264356226
                ],
                "label": "O",
                "properties": {}
            },
            {
                "species": [
                    {
                        "element": "O",
                        "occu": 1
                    }
                ],
                "abc": [
                    0.42055676,
                    0.21767732,
                    0.54763169
                ],
                "xyz": [
                    0.9924434007453933,
                    -1.2907771530366412,
                    4.416437149356227
                ],
                "label": "O",
                "properties": {}
            },
            {
                "species": [
                    {
                        "element": "O",
                        "occu": 1
                    }
                ],
                "abc": [
                    0.21767732,
                    0.54763169,
                    0.42055676
                ],
                "xyz": [
                    -1.6140671378706675,
                    -0.21409323604829122,
                    4.416437149356227
                ],
                "label": "O",
                "properties": {}
            },
            {
                "species": [
                    {
                        "element": "O",
                        "occu": 1
                    }
                ],
                "abc": [
                    0.54763169,
                    0.42055676,
                    0.21767732
                ],
                "xyz": [
                    0.6216237371252742,
                    1.5048691913605046,
                    4.416437149356227
                ],
                "label": "O",
                "properties": {}
            }
        ]
    },
    "spacegroup": {
        "source": "spglib",
        "symbol": "R-3c",
        "number": 167,
        "point_group": "-3m",
        "crystal_system": "trigonal",
        "hall": "-R 3 2\"c"
    },
    "dielectric": {
        "epsilon_ionic": [
            [
                14.27711054,
                -1e-08,
                0.0
            ],
            [
                -1e-08,
                14.27718024,
                1.536e-05
            ],
            [
                0.0,
                1.536e-05,
                14.97406881
            ]
        ],
        "epsilon_ionic_avg": 14.50945319666666,
        "epsilon_ionic_eig": [
            14.277110539998564,
            14.277180239662874,
            14.974068810338547
        ],
        "epsilon_electronic": [
            [
                3.976224,
                0.0,
                -0.0
            ],
            [
                0.0,
                3.97622392,
                3.5e-07
            ],
            [
                0.0,
                3.5e-07,
                3.88204515
            ]
        ],
        "epsilon_electronic_avg": 3.9448310233333337,
        "epsilon_electronic_eig": [
            3.8820451499986994,
            3.9762239200013005,
            3.976224
        ]
    },
    "phonon": {
        "lowest_freq": -0.033586442519604874,
        "frequency": [
            -0.033586442519604874,
            -0.026511475036020228,
            -0.02651147475946059,
            2.6341036634603596,
            2.634103677377815,
            2.660618393875247,
            2.660618407654006,
            2.683428837666017,
            3.0951812626480835,
            3.0951813731941713,
            3.377395726240746,
            3.472248170243666,
            3.6440427381256923,
            3.775021902886066,
            3.7750219320196874,
            4.044612888759117,
            4.044613027739115,
            4.508161977672115,
            4.621475046660128,
            4.621475141850566,
            4.909173422028773,
            4.924814733651067,
            4.9248147758333864,
            5.14956262206122,
            5.149562764442319,
            5.232617816028433,
            5.232617862735481,
            5.401787691720205,
            5.465972432853638,
            5.557220791870575,
            5.557220989775359,
            6.051079800430379,
            6.0686727143119175,
            6.6003914350165465,
            7.041294912482641,
            7.04129513809467,
            7.302222571210949,
            7.3022227050880675,
            7.945082017722743,
            8.542597565515056,
            8.542597622734215,
            9.076169124313903,
            9.76262702456653,
            9.76262704960079,
            10.97663297840178,
            10.976633089729239,
            11.177566402803786,
            11.177566687051852,
            11.59762101210117,
            11.959750886857128,
            11.95975106055649,
            12.182350135679503,
            12.29837389937596,
            12.859558853940955,
            15.361598047959678,
            15.361598644577603,
            15.451850253898971,
            16.707364557284674,
            16.70736499613329,
            16.80499011631095,
            16.804990552610157,
            16.86657007124758,
            17.98212881794807,
            17.982129361599227,
            21.56503237695985,
            21.611910882283084
        ]
    },
    "born_effective_charge": {
        "avg_abs_trace": 2.6426548484848484,
        "tensors": [
            [
                [
                    2.54622,
                    0.0,
                    -0.0
                ],
                [
                    -0.00013,
                    2.65009,
                    0.33385
                ],
                [
                    4e-05,
                    0.32607,
                    2.37435
                ]
            ],
            [
                [
                    2.62407,
                    -0.04502,
                    0.28906
                ],
                [
                    -0.04489,
                    2.57193,
                    -0.16686
                ],
                [
                    0.28236,
                    -0.16307,
                    2.37435
                ]
            ],
            [
                [
                    2.62407,
                    0.04502,
                    -0.28906
                ],
                [
                    0.04511,
                    2.5723,
                    -0.16698
                ],
                [
                    -0.2824,
                    -0.163,
                    2.37435
                ]
            ],
            [
                [
                    2.62409,
                    -0.04497,
                    0.28916
                ],
                [
                    -0.04511,
                    2.5723,
                    -0.16698
                ],
                [
                    0.2824,
                    -0.163,
                    2.37435
                ]
            ],
            [
                [
                    2.62409,
                    0.04497,
                    -0.28916
                ],
                [
                    0.04489,
                    2.57193,
                    -0.16686
                ],
                [
                    -0.28236,
                    -0.16307,
                    2.37435
                ]
            ],
            [
                [
                    2.54602,
                    0.0,
                    -0.0
                ],
                [
                    0.00013,
                    2.65009,
                    0.33385
                ],
                [
                    -4e-05,
                    0.32607,
                    2.37435
                ]
            ],
            [
                [
                    0.79633,
                    0.0,
                    -0.0
                ],
                [
                    1e-05,
                    0.79633,
                    -0.0
                ],
                [
                    0.0,
                    0.0,
                    1.51304
                ]
            ],
            [
                [
                    0.79633,
                    0.0,
                    -0.0
                ],
                [
                    -1e-05,
                    0.79633,
                    -0.0
                ],
                [
                    0.0,
                    0.0,
                    1.51304
                ]
            ],
            [
                [
                    6.04294,
                    -0.06354,
                    0.0
                ],
                [
                    0.06354,
                    6.04295,
                    0.0
                ],
                [
                    0.0,
                    0.0,
                    5.70056
                ]
            ],
            [
                [
                    6.04294,
                    0.06354,
                    -0.0
                ],
                [
                    -0.06354,
                    6.04295,
                    0.0
                ],
                [
                    0.0,
                    0.0,
                    5.70056
                ]
            ],
            [
                [
                    -2.04542,
                    0.49548,
                    -0.38394
                ],
                [
                    0.4197,
                    -2.83254,
                    0.84893
                ],
                [
                    -0.38002,
                    0.86468,
                    -2.38942
                ]
            ],
            [
                [
                    -3.03201,
                    0.14992,
                    0.92713
                ],
                [
                    0.07414,
                    -1.84589,
                    -0.09199
                ],
                [
                    0.93885,
                    -0.10323,
                    -2.38942
                ]
            ],
            [
                [
                    -2.23947,
                    -0.53173,
                    -0.54328
                ],
                [
                    -0.60752,
                    -2.63849,
                    -0.75705
                ],
                [
                    -0.55882,
                    -0.76145,
                    -2.38942
                ]
            ],
            [
                [
                    -2.23938,
                    0.53172,
                    0.54328
                ],
                [
                    0.60752,
                    -2.63849,
                    -0.75705
                ],
                [
                    0.55882,
                    -0.76145,
                    -2.38942
                ]
            ],
            [
                [
                    -3.03194,
                    -0.14993,
                    -0.92718
                ],
                [
                    -0.07414,
                    -1.84589,
                    -0.09199
                ],
                [
                    -0.93885,
                    -0.10323,
                    -2.38942
                ]
            ],
            [
                [
                    -2.04534,
                    -0.49547,
                    0.38382
                ],
                [
                    -0.4197,
                    -2.83254,
                    0.84893
                ],
                [
                    0.38002,
                    0.86468,
                    -2.38942
                ]
            ],
            [
                [
                    -2.04534,
                    0.49547,
                    -0.38382
                ],
                [
                    0.41967,
                    -2.83241,
                    0.84897
                ],
                [
                    -0.37994,
                    0.86463,
                    -2.38947
                ]
            ],
            [
                [
                    -3.03194,
                    0.14993,
                    0.92718
                ],
                [
                    0.07415,
                    -1.84586,
                    -0.09206
                ],
                [
                    0.93876,
                    -0.10328,
                    -2.38947
                ]
            ],
            [
                [
                    -2.23938,
                    -0.53172,
                    -0.54328
                ],
                [
                    -0.60748,
                    -2.63839,
                    -0.75681
                ],
                [
                    -0.55882,
                    -0.76135,
                    -2.38947
                ]
            ],
            [
                [
                    -2.23947,
                    0.53173,
                    0.54328
                ],
                [
                    0.60748,
                    -2.63839,
                    -0.75681
                ],
                [
                    0.55882,
                    -0.76135,
                    -2.38947
                ]
            ],
            [
                [
                    -3.03201,
                    -0.14992,
                    -0.92713
                ],
                [
                    -0.07415,
                    -1.84586,
                    -0.09206
                ],
                [
                    -0.93876,
                    -0.10328,
                    -2.38947
                ]
            ],
            [
                [
                    -2.04542,
                    -0.49548,
                    0.38394
                ],
                [
                    -0.41967,
                    -2.83241,
                    0.84897
                ],
                [
                    0.37994,
                    0.86463,
                    -2.38947
                ]
            ]
        ]
    },
    "band_gap": 4.0074000000000005,
    "is_direct": true,
    "formula": "Sr3LiTaO6"
}