{
    "mp_id": "mp-1226455",
    "nelements": 4,
    "nsites": 16,
    "elements": [
        "B",
        "Cs",
        "Ge",
        "O"
    ],
    "structure": {
        "@module": "pymatgen.core.structure",
        "@class": "Structure",
        "charge": null,
        "lattice": {
            "matrix": [
                [
                    4.66433095,
                    -5.07738198,
                    0.00070032
                ],
                [
                    4.66433095,
                    5.07738198,
                    0.00070032
                ],
                [
                    -4.6523379,
                    0.0,
                    4.87049589
                ]
            ],
            "a": 6.894620473412929,
            "b": 6.894620473412929,
            "c": 6.735427094868097,
            "alpha": 117.85367141189143,
            "beta": 117.85367141189143,
            "gamma": 94.85580121558168,
            "volume": 230.7249991773251
        },
        "sites": [
            {
                "species": [
                    {
                        "element": "Cs",
                        "occu": 1
                    }
                ],
                "abc": [
                    0.74065722,
                    0.25934278,
                    0.0
                ],
                "xyz": [
                    4.66433095,
                    -2.443817264369791,
                    0.00070032
                ],
                "label": "Cs",
                "properties": {}
            },
            {
                "species": [
                    {
                        "element": "Cs",
                        "occu": 1
                    }
                ],
                "abc": [
                    0.01945265,
                    0.98054735,
                    0.5
                ],
                "xyz": [
                    2.338162,
                    4.879844910853507,
                    2.435948265
                ],
                "label": "Cs",
                "properties": {}
            },
            {
                "species": [
                    {
                        "element": "Ge",
                        "occu": 1
                    }
                ],
                "abc": [
                    0.25574525,
                    0.74425475,
                    0.0
                ],
                "xyz": [
                    4.66433095,
                    2.48034933235881,
                    0.0007003199999999999
                ],
                "label": "Ge",
                "properties": {}
            },
            {
                "species": [
                    {
                        "element": "B",
                        "occu": 1
                    }
                ],
                "abc": [
                    0.77159907,
                    0.66612671,
                    0.80578999
                ],
                "xyz": [
                    2.957221543349271,
                    -0.5355234600520729,
                    3.9256037026163906
                ],
                "label": "B",
                "properties": {}
            },
            {
                "species": [
                    {
                        "element": "B",
                        "occu": 1
                    }
                ],
                "abc": [
                    0.33387329,
                    0.22840093,
                    0.19421001
                ],
                "xyz": [
                    1.7191024566507305,
                    -0.5355234600520729,
                    0.9462928273836092
                ],
                "label": "B",
                "properties": {}
            },
            {
                "species": [
                    {
                        "element": "B",
                        "occu": 1
                    }
                ],
                "abc": [
                    0.48389148,
                    0.65531244,
                    0.4035843
                ],
                "xyz": [
                    3.4360135676823536,
                    0.8703696932983012,
                    1.9664534817077814
                ],
                "label": "B",
                "properties": {}
            },
            {
                "species": [
                    {
                        "element": "B",
                        "occu": 1
                    }
                ],
                "abc": [
                    0.34468756,
                    0.51610852,
                    0.5964157
                ],
                "xyz": [
                    1.2403104323176457,
                    0.8703696932983007,
                    2.9054430482922182
                ],
                "label": "B",
                "properties": {}
            },
            {
                "species": [
                    {
                        "element": "O",
                        "occu": 1
                    }
                ],
                "abc": [
                    0.59503305,
                    0.59301735,
                    0.82697079
                ],
                "xyz": [
                    1.6941127023699387,
                    -0.01023447885708606,
                    4.028589849301181
                ],
                "label": "O",
                "properties": {}
            },
            {
                "species": [
                    {
                        "element": "O",
                        "occu": 1
                    }
                ],
                "abc": [
                    0.40698265,
                    0.40496695,
                    0.17302921
                ],
                "xyz": [
                    2.982211297630061,
                    -0.01023447885708606,
                    0.8433066806988188
                ],
                "label": "O",
                "properties": {}
            },
            {
                "species": [
                    {
                        "element": "O",
                        "occu": 1
                    }
                ],
                "abc": [
                    0.73916107,
                    0.72782212,
                    0.63017534
                ],
                "xyz": [
                    3.9107064783193453,
                    -0.0575721804021212,
                    3.0702937611169734
                ],
                "label": "O",
                "properties": {}
            },
            {
                "species": [
                    {
                        "element": "O",
                        "occu": 1
                    }
                ],
                "abc": [
                    0.27217788,
                    0.26083893,
                    0.36982466
                ],
                "xyz": [
                    0.7656175216806556,
                    -0.057572180402120754,
                    1.8016027688830267
                ],
                "label": "O",
                "properties": {}
            },
            {
                "species": [
                    {
                        "element": "O",
                        "occu": 1
                    }
                ],
                "abc": [
                    0.98977508,
                    0.67496123,
                    0.98356305
                ],
                "xyz": [
                    3.1890134397671988,
                    -1.598430169044423,
                    4.791605640713484
                ],
                "label": "O",
                "properties": {}
            },
            {
                "species": [
                    {
                        "element": "O",
                        "occu": 1
                    }
                ],
                "abc": [
                    0.32503877,
                    0.01022492,
                    0.01643695
                ],
                "xyz": [
                    1.4873105602328005,
                    -1.598430169044423,
                    0.0802908892865163
                ],
                "label": "O",
                "properties": {}
            },
            {
                "species": [
                    {
                        "element": "O",
                        "occu": 1
                    }
                ],
                "abc": [
                    0.49322118,
                    0.81461989,
                    0.3186502
                ],
                "xyz": [
                    4.617735178179537,
                    1.631864018549246,
                    1.5529003967058204
                ],
                "label": "O",
                "properties": {}
            },
            {
                "species": [
                    {
                        "element": "O",
                        "occu": 1
                    }
                ],
                "abc": [
                    0.18538011,
                    0.50677882,
                    0.6813498
                ],
                "xyz": [
                    0.0585888218204631,
                    1.6318640185492455,
                    3.3189961332941795
                ],
                "label": "O",
                "properties": {}
            },
            {
                "species": [
                    {
                        "element": "O",
                        "occu": 1
                    }
                ],
                "abc": [
                    0.33332469,
                    0.66667531,
                    0.5
                ],
                "xyz": [
                    2.338162,
                    1.692548431009828,
                    2.435948265
                ],
                "label": "O",
                "properties": {}
            }
        ]
    },
    "spacegroup": {
        "source": "spglib",
        "symbol": "C2",
        "number": 5,
        "point_group": "2",
        "crystal_system": "monoclinic",
        "hall": "C 2y"
    },
    "dielectric": {
        "epsilon_ionic": [
            [
                3.91296322,
                1.956e-05,
                1.21377571
            ],
            [
                1.956e-05,
                3.53383539,
                -6e-08
            ],
            [
                1.21377571,
                -6e-08,
                5.8166218
            ]
        ],
        "epsilon_ionic_avg": 4.4211401366666685,
        "epsilon_ionic_eig": [
            6.407267946292445,
            3.3223170722658786,
            3.533835391441681
        ],
        "epsilon_electronic": [
            [
                2.73210226,
                0.0,
                -0.03081477
            ],
            [
                0.0,
                2.66944635,
                0.0
            ],
            [
                -0.03081335,
                0.0,
                2.72191379
            ]
        ],
        "epsilon_electronic_avg": 2.7078208,
        "epsilon_electronic_eig": [
            2.7582403403706977,
            2.6957757096293022,
            2.66944635
        ]
    },
    "phonon": {
        "lowest_freq": -0.16819790503360002,
        "frequency": [
            -0.16819790503360002,
            -0.14716553540731775,
            -0.04952510503057037,
            1.158342296337949,
            1.7137620330972179,
            1.9881231571109437,
            2.191475532731552,
            2.298355971482242,
            2.84992434012973,
            2.98127467555296,
            3.347779990382799,
            4.38996230670377,
            5.315193197898099,
            6.4967756854065986,
            7.491027607706841,
            7.8468207982798,
            8.281588668377326,
            8.326471351240768,
            9.894612725394762,
            10.100668739836168,
            12.37065536303148,
            12.572416161338426,
            12.95955694512495,
            13.767781173826766,
            14.958175000154029,
            16.54878710474447,
            17.970997172946927,
            18.707149833937116,
            19.848661613525618,
            19.88702073483807,
            20.727115241522167,
            20.949632245416765,
            21.474373895812054,
            21.804575075470215,
            23.791733142935804,
            24.661700692691255,
            25.471012760970694,
            25.500577876901,
            27.42145846808049,
            28.034552227128714,
            30.270838556239717,
            30.545048930087383,
            31.576173488281942,
            33.07331328804783,
            37.98288107600597,
            39.27867547499136,
            40.2192233609402,
            41.216320736294065
        ]
    },
    "born_effective_charge": {
        "avg_abs_trace": 1.8319827083333333,
        "tensors": [
            [
                [
                    1.40455,
                    0.0,
                    0.09308
                ],
                [
                    0.0,
                    1.4027,
                    0.0
                ],
                [
                    0.08365,
                    -0.0,
                    1.30519
                ]
            ],
            [
                [
                    1.47121,
                    0.0,
                    -0.08982
                ],
                [
                    -0.0,
                    1.26454,
                    0.0
                ],
                [
                    -0.02164,
                    -0.0,
                    1.41692
                ]
            ],
            [
                [
                    3.19165,
                    4e-05,
                    -0.38118
                ],
                [
                    -0.0,
                    3.63407,
                    0.0
                ],
                [
                    0.13899,
                    6e-05,
                    3.23677
                ]
            ],
            [
                [
                    2.12662,
                    -0.70502,
                    -0.04577
                ],
                [
                    -0.27639,
                    1.90657,
                    -1.21472
                ],
                [
                    -0.43695,
                    -1.09767,
                    1.74665
                ]
            ],
            [
                [
                    2.12662,
                    0.70503,
                    -0.04574
                ],
                [
                    0.27639,
                    1.90657,
                    1.21472
                ],
                [
                    -0.43696,
                    1.09765,
                    1.74664
                ]
            ],
            [
                [
                    2.44323,
                    0.3243,
                    0.0657
                ],
                [
                    0.40697,
                    2.22157,
                    -0.01009
                ],
                [
                    -0.48012,
                    -0.32912,
                    2.37536
                ]
            ],
            [
                [
                    2.44323,
                    -0.32425,
                    0.0657
                ],
                [
                    -0.40697,
                    2.22157,
                    0.01009
                ],
                [
                    -0.48012,
                    0.32914,
                    2.37536
                ]
            ],
            [
                [
                    -1.89215,
                    0.65433,
                    -0.14493
                ],
                [
                    0.53815,
                    -1.51267,
                    0.50623
                ],
                [
                    -0.06749,
                    0.49398,
                    -1.4104
                ]
            ],
            [
                [
                    -1.89208,
                    -0.65425,
                    -0.14507
                ],
                [
                    -0.53815,
                    -1.51267,
                    -0.50623
                ],
                [
                    -0.06761,
                    -0.49392,
                    -1.41038
                ]
            ],
            [
                [
                    -1.50039,
                    0.02488,
                    0.0943
                ],
                [
                    -0.17024,
                    -1.43156,
                    0.69143
                ],
                [
                    0.34639,
                    0.81642,
                    -1.81776
                ]
            ],
            [
                [
                    -1.50025,
                    -0.02491,
                    0.09419
                ],
                [
                    0.17024,
                    -1.43156,
                    -0.69143
                ],
                [
                    0.34677,
                    -0.81645,
                    -1.81799
                ]
            ],
            [
                [
                    -1.55509,
                    0.73741,
                    -0.26597
                ],
                [
                    0.53822,
                    -1.97293,
                    0.71833
                ],
                [
                    -0.15805,
                    0.65823,
                    -1.49572
                ]
            ],
            [
                [
                    -1.55493,
                    -0.73753,
                    -0.26601
                ],
                [
                    -0.53822,
                    -1.97293,
                    -0.71833
                ],
                [
                    -0.15788,
                    -0.65835,
                    -1.4959
                ]
            ],
            [
                [
                    -1.67748,
                    -0.43464,
                    0.35001
                ],
                [
                    -0.51255,
                    -1.56488,
                    0.50698
                ],
                [
                    0.44545,
                    0.53971,
                    -1.69798
                ]
            ],
            [
                [
                    -1.67743,
                    0.43477,
                    0.35002
                ],
                [
                    0.51255,
                    -1.56488,
                    -0.50698
                ],
                [
                    0.44538,
                    -0.53958,
                    -1.69811
                ]
            ],
            [
                [
                    -1.95731,
                    -0.00015,
                    0.27148
                ],
                [
                    0.0,
                    -1.59351,
                    0.0
                ],
                [
                    0.5002,
                    -9e-05,
                    -1.35864
                ]
            ]
        ]
    },
    "band_gap": 4.1741,
    "is_direct": true,
    "formula": "Cs2GeB4O9"
}