{
    "mp_id": "mp-1223396",
    "nelements": 4,
    "nsites": 18,
    "elements": [
        "K",
        "Nb",
        "O",
        "W"
    ],
    "structure": {
        "@module": "pymatgen.core.structure",
        "@class": "Structure",
        "charge": null,
        "lattice": {
            "matrix": [
                [
                    -3.71483519,
                    5.18790753,
                    3.71868842
                ],
                [
                    3.71483519,
                    -5.18790753,
                    3.71868842
                ],
                [
                    3.71483519,
                    5.18790753,
                    -3.71868842
                ]
            ],
            "a": 7.3853252192259715,
            "b": 7.3853252192259715,
            "c": 7.3853252192259715,
            "alpha": 119.60234654819051,
            "beta": 90.75032917024505,
            "gamma": 119.53315911077905,
            "volume": 286.66954700819724
        },
        "sites": [
            {
                "species": [
                    {
                        "element": "K",
                        "occu": 1
                    }
                ],
                "abc": [
                    0.44814301,
                    0.36577209,
                    0.58237092
                ],
                "xyz": [
                    1.857417595,
                    3.4486191972420555,
                    0.8610406608843957
                ],
                "label": "K",
                "properties": {}
            },
            {
                "species": [
                    {
                        "element": "K",
                        "occu": 1
                    }
                ],
                "abc": [
                    0.78340117,
                    0.86577209,
                    0.41762908
                ],
                "xyz": [
                    1.8574175949999998,
                    1.7392883327579445,
                    4.579729080884396
                ],
                "label": "K",
                "properties": {}
            },
            {
                "species": [
                    {
                        "element": "Nb",
                        "occu": 1
                    }
                ],
                "abc": [
                    0.99770106,
                    0.49770106,
                    0.5
                ],
                "xyz": [
                    0.0,
                    5.18790753,
                    3.7015903368874508
                ],
                "label": "Nb",
                "properties": {}
            },
            {
                "species": [
                    {
                        "element": "Nb",
                        "occu": 1
                    }
                ],
                "abc": [
                    0.99770106,
                    0.99770106,
                    0.0
                ],
                "xyz": [
                    0.0,
                    0.0,
                    7.42027875688745
                ],
                "label": "Nb",
                "properties": {}
            },
            {
                "species": [
                    {
                        "element": "W",
                        "occu": 1
                    }
                ],
                "abc": [
                    0.01609167,
                    0.51352307,
                    0.0025686
                ],
                "xyz": [
                    1.8574175949999998,
                    -2.567302446436884,
                    1.9599203776236986
                ],
                "label": "W",
                "properties": {}
            },
            {
                "species": [
                    {
                        "element": "W",
                        "occu": 1
                    }
                ],
                "abc": [
                    0.51095546,
                    0.01352307,
                    0.9974314
                ],
                "xyz": [
                    1.8574139173131614,
                    7.75521511246534,
                    -1.7587643608747652
                ],
                "label": "W",
                "properties": {}
            },
            {
                "species": [
                    {
                        "element": "O",
                        "occu": 1
                    }
                ],
                "abc": [
                    0.91386094,
                    0.73335248,
                    0.68050846
                ],
                "xyz": [
                    1.8574175950000003,
                    4.466876162725407,
                    3.594874540308563
                ],
                "label": "O",
                "properties": {}
            },
            {
                "species": [
                    {
                        "element": "O",
                        "occu": 1
                    }
                ],
                "abc": [
                    0.30301205,
                    0.74383523,
                    0.05917681
                ],
                "xyz": [
                    1.8574175578516479,
                    -1.9799460767201662,
                    3.6728387395649573
                ],
                "label": "O",
                "properties": {}
            },
            {
                "species": [
                    {
                        "element": "O",
                        "occu": 1
                    }
                ],
                "abc": [
                    0.30865566,
                    0.10986546,
                    0.06039367
                ],
                "xyz": [
                    -0.5141202998178906,
                    1.3446219508275412,
                    1.331764401199129
                ],
                "label": "O",
                "properties": {}
            },
            {
                "species": [
                    {
                        "element": "O",
                        "occu": 1
                    }
                ],
                "abc": [
                    0.92841102,
                    0.36997905,
                    0.69710145
                ],
                "xyz": [
                    0.515134264083001,
                    6.513591283784653,
                    2.2360050282717805
                ],
                "label": "O",
                "properties": {}
            },
            {
                "species": [
                    {
                        "element": "O",
                        "occu": 1
                    }
                ],
                "abc": [
                    0.92841102,
                    0.73130956,
                    0.05843096
                ],
                "xyz": [
                    -0.5151380532148949,
                    1.3256785658771222,
                    5.9546971669602
                ],
                "label": "O",
                "properties": {}
            },
            {
                "species": [
                    {
                        "element": "O",
                        "occu": 1
                    }
                ],
                "abc": [
                    0.30865566,
                    0.74826199,
                    0.6987902
                ],
                "xyz": [
                    4.228955489817891,
                    1.3446219508275412,
                    1.3317644011991288
                ],
                "label": "O",
                "properties": {}
            },
            {
                "species": [
                    {
                        "element": "O",
                        "occu": 1
                    }
                ],
                "abc": [
                    0.05284402,
                    0.23335248,
                    0.31949154
                ],
                "xyz": [
                    1.8574175950000003,
                    0.7210313672745925,
                    -0.12381387969143698
                ],
                "label": "O",
                "properties": {}
            },
            {
                "species": [
                    {
                        "element": "O",
                        "occu": 1
                    }
                ],
                "abc": [
                    0.68465942,
                    0.24383523,
                    0.94082319
                ],
                "xyz": [
                    1.8574138801648101,
                    7.167858846506772,
                    -0.04584599893350694
                ],
                "label": "O",
                "properties": {}
            },
            {
                "species": [
                    {
                        "element": "O",
                        "occu": 1
                    }
                ],
                "abc": [
                    0.6728776,
                    0.86997905,
                    0.94156904
                ],
                "xyz": [
                    4.229973206066543,
                    3.8622290160019537,
                    2.236001272396476
                ],
                "label": "O",
                "properties": {}
            },
            {
                "species": [
                    {
                        "element": "O",
                        "occu": 1
                    }
                ],
                "abc": [
                    0.04947179,
                    0.60986546,
                    0.3012098
                ],
                "xyz": [
                    3.200714890182109,
                    -1.344621950827541,
                    1.3317644011991288
                ],
                "label": "O",
                "properties": {}
            },
            {
                "species": [
                    {
                        "element": "O",
                        "occu": 1
                    }
                ],
                "abc": [
                    0.04947179,
                    0.24826199,
                    0.93960633
                ],
                "xyz": [
                    4.22895548981789,
                    3.843285579172459,
                    -2.386924018800871
                ],
                "label": "O",
                "properties": {}
            },
            {
                "species": [
                    {
                        "element": "O",
                        "occu": 1
                    }
                ],
                "abc": [
                    0.6728776,
                    0.23130956,
                    0.30289855
                ],
                "xyz": [
                    -0.515134301231353,
                    3.862223828094423,
                    2.2360049910848963
                ],
                "label": "O",
                "properties": {}
            }
        ]
    },
    "spacegroup": {
        "source": "spglib",
        "symbol": "Ima2",
        "number": 46,
        "point_group": "mm2",
        "crystal_system": "orthorhombic",
        "hall": "I 2 -2a"
    },
    "dielectric": {
        "epsilon_ionic": [
            [
                60.08313226,
                -4.4e-07,
                -0.00193137
            ],
            [
                -4.4e-07,
                65.74001701,
                0.00446804
            ],
            [
                -0.00193137,
                0.00446804,
                38.71918351
            ]
        ],
        "epsilon_ionic_avg": 54.84744426000001,
        "epsilon_ionic_eig": [
            60.08313243460201,
            38.7191825965835,
            65.74001774881451
        ],
        "epsilon_electronic": [
            [
                5.08850816,
                0.0,
                0.0
            ],
            [
                0.0,
                5.00893034,
                0.0
            ],
            [
                0.0,
                0.0,
                4.71564201
            ]
        ],
        "epsilon_electronic_avg": 4.937693503333333,
        "epsilon_electronic_eig": [
            5.08850816,
            5.00893034,
            4.71564201
        ]
    },
    "phonon": {
        "lowest_freq": -0.057862932281818505,
        "frequency": [
            -0.057862932281818505,
            -0.045565213912822596,
            -0.045142980558154425,
            1.3603736498868764,
            1.3637509383541457,
            1.7059287293673404,
            1.785331281490874,
            1.914572806890876,
            2.5165441587961297,
            2.8244824824296635,
            2.875809000577279,
            3.19811590032529,
            3.917525141982461,
            4.162324166995828,
            4.716463121508726,
            4.746650176906228,
            4.913410780129758,
            6.0631234165594785,
            6.186022516055635,
            6.240858547890975,
            6.246601064366502,
            7.025949780412313,
            7.070357284401542,
            7.934967500574299,
            8.095369167533487,
            8.580109495346543,
            8.883402055670622,
            9.14036297677362,
            9.155343638627556,
            9.464439003585717,
            10.160079782520665,
            10.339651815873406,
            10.659960029461006,
            11.3107969904965,
            12.195638890016886,
            12.475687060623516,
            12.599454972159604,
            12.73491905273601,
            12.988066180541514,
            13.49606191928434,
            13.51414516443439,
            14.342217607003844,
            15.452230368501324,
            16.51730920454212,
            17.031316053885075,
            17.41076021932805,
            17.591163130914747,
            18.260224753848412,
            18.83373466120729,
            19.856984870567764,
            20.969289471160128,
            26.08647831289142,
            26.877271564487927,
            27.362587681327984
        ]
    },
    "born_effective_charge": {
        "avg_abs_trace": 4.070527037037037,
        "tensors": [
            [
                [
                    1.38691,
                    -0.0004,
                    -0.00028
                ],
                [
                    0.0,
                    1.23843,
                    0.16837
                ],
                [
                    0.0,
                    0.13435,
                    1.15344
                ]
            ],
            [
                [
                    1.38691,
                    0.0004,
                    -0.00028
                ],
                [
                    0.0,
                    1.23864,
                    -0.16965
                ],
                [
                    -0.0,
                    -0.13435,
                    1.15344
                ]
            ],
            [
                [
                    9.83763,
                    2.19978,
                    -0.00023
                ],
                [
                    2.29392,
                    8.56814,
                    0.00281
                ],
                [
                    0.0,
                    0.0,
                    6.66727
                ]
            ],
            [
                [
                    9.83763,
                    -2.19978,
                    -0.00023
                ],
                [
                    -2.29392,
                    8.56814,
                    0.00281
                ],
                [
                    0.0,
                    -0.0,
                    6.66727
                ]
            ],
            [
                [
                    7.73774,
                    0.00013,
                    -0.00024
                ],
                [
                    0.0,
                    8.88527,
                    -2.54875
                ],
                [
                    0.0,
                    -2.95288,
                    9.47758
                ]
            ],
            [
                [
                    7.73774,
                    -0.00013,
                    -0.00024
                ],
                [
                    0.0,
                    8.88444,
                    2.54735
                ],
                [
                    0.0,
                    2.95288,
                    9.47758
                ]
            ],
            [
                [
                    -6.44234,
                    -0.00016,
                    -0.00038
                ],
                [
                    0.0,
                    -1.76258,
                    -0.0424
                ],
                [
                    0.0,
                    -0.05139,
                    -1.21694
                ]
            ],
            [
                [
                    -0.95853,
                    4e-05,
                    3e-05
                ],
                [
                    0.0,
                    -1.24091,
                    0.08475
                ],
                [
                    0.0,
                    -0.33614,
                    -5.77113
                ]
            ],
            [
                [
                    -2.87856,
                    2.12627,
                    1.49834
                ],
                [
                    2.08939,
                    -3.98982,
                    -2.29512
                ],
                [
                    1.34295,
                    -2.11037,
                    -2.73662
                ]
            ],
            [
                [
                    -2.90183,
                    -1.93745,
                    0.90208
                ],
                [
                    -2.02402,
                    -3.8541,
                    1.67608
                ],
                [
                    1.07791,
                    1.89863,
                    -2.4185
                ]
            ],
            [
                [
                    -2.90221,
                    1.93745,
                    -0.90164
                ],
                [
                    2.02402,
                    -3.8541,
                    1.67608
                ],
                [
                    -1.07791,
                    1.89863,
                    -2.4185
                ]
            ],
            [
                [
                    -2.87881,
                    -2.1261,
                    -1.49768
                ],
                [
                    -2.08939,
                    -3.98982,
                    -2.29512
                ],
                [
                    -1.34295,
                    -2.11037,
                    -2.73662
                ]
            ],
            [
                [
                    -6.44234,
                    0.00016,
                    -0.00038
                ],
                [
                    0.0,
                    -1.76218,
                    0.04181
                ],
                [
                    -0.0,
                    0.05139,
                    -1.21694
                ]
            ],
            [
                [
                    -0.95853,
                    -4e-05,
                    3e-05
                ],
                [
                    0.0,
                    -1.24129,
                    -0.08513
                ],
                [
                    0.0,
                    0.33614,
                    -5.77113
                ]
            ],
            [
                [
                    -2.90183,
                    1.93745,
                    0.90208
                ],
                [
                    2.02362,
                    -3.85413,
                    -1.67656
                ],
                [
                    1.07791,
                    -1.89863,
                    -2.4185
                ]
            ],
            [
                [
                    -2.87856,
                    -2.12627,
                    1.49834
                ],
                [
                    -2.08959,
                    -3.99001,
                    2.29462
                ],
                [
                    1.34295,
                    2.11037,
                    -2.73662
                ]
            ],
            [
                [
                    -2.87881,
                    2.1261,
                    -1.49768
                ],
                [
                    2.08959,
                    -3.99001,
                    2.29462
                ],
                [
                    -1.34295,
                    2.11037,
                    -2.73662
                ]
            ],
            [
                [
                    -2.90221,
                    -1.93745,
                    -0.90164
                ],
                [
                    -2.02362,
                    -3.85413,
                    -1.67656
                ],
                [
                    -1.07791,
                    -1.89863,
                    -2.4185
                ]
            ]
        ]
    },
    "band_gap": 3.0861,
    "is_direct": false,
    "formula": "KNbWO6"
}