{
    "mp_id": "mp-1207659",
    "nelements": 4,
    "nsites": 24,
    "elements": [
        "Ag",
        "O",
        "W",
        "Y"
    ],
    "structure": {
        "@module": "pymatgen.core.structure",
        "@class": "Structure",
        "charge": null,
        "lattice": {
            "matrix": [
                [
                    4.94243614,
                    -5.33222802,
                    -9.841e-05
                ],
                [
                    4.94243614,
                    5.33222802,
                    -9.841e-05
                ],
                [
                    -4.30800309,
                    0.0,
                    5.71125678
                ]
            ],
            "a": 7.270511031896984,
            "b": 7.270511031896984,
            "c": 7.153834260768523,
            "alpha": 114.16578102445345,
            "beta": 114.16578102445345,
            "gamma": 94.34519788343711,
            "volume": 301.02664537073684
        },
        "sites": [
            {
                "species": [
                    {
                        "element": "Y",
                        "occu": 1
                    }
                ],
                "abc": [
                    0.69540664,
                    0.30459336,
                    0.0
                ],
                "xyz": [
                    4.94243614,
                    -2.0839055222041054,
                    -9.841e-05
                ],
                "label": "Y",
                "properties": {}
            },
            {
                "species": [
                    {
                        "element": "Y",
                        "occu": 1
                    }
                ],
                "abc": [
                    0.30459336,
                    0.69540664,
                    0.0
                ],
                "xyz": [
                    4.94243614,
                    2.0839055222041054,
                    -9.841e-05
                ],
                "label": "Y",
                "properties": {}
            },
            {
                "species": [
                    {
                        "element": "Ag",
                        "occu": 1
                    }
                ],
                "abc": [
                    0.30943845,
                    0.30943845,
                    0.48044628
                ],
                "xyz": [
                    0.9889954979521609,
                    0.0,
                    2.7438911704000497
                ],
                "label": "Ag",
                "properties": {}
            },
            {
                "species": [
                    {
                        "element": "Ag",
                        "occu": 1
                    }
                ],
                "abc": [
                    0.69056155,
                    0.69056155,
                    0.51955372
                ],
                "xyz": [
                    4.587873692047839,
                    0.0,
                    2.967168789599951
                ],
                "label": "Ag",
                "properties": {}
            },
            {
                "species": [
                    {
                        "element": "W",
                        "occu": 1
                    }
                ],
                "abc": [
                    0.78825533,
                    0.78825533,
                    0.02635553
                ],
                "xyz": [
                    7.6782635564006645,
                    0.0,
                    0.1503680549889428
                ],
                "label": "W",
                "properties": {}
            },
            {
                "species": [
                    {
                        "element": "W",
                        "occu": 1
                    }
                ],
                "abc": [
                    0.21174467,
                    0.21174467,
                    0.97364447
                ],
                "xyz": [
                    -2.1013943664006645,
                    0.0,
                    5.5606919050110575
                ],
                "label": "W",
                "properties": {}
            },
            {
                "species": [
                    {
                        "element": "W",
                        "occu": 1
                    }
                ],
                "abc": [
                    0.8362912,
                    0.1637088,
                    0.5
                ],
                "xyz": [
                    2.788434595,
                    -3.5863627190388483,
                    2.85552998
                ],
                "label": "W",
                "properties": {}
            },
            {
                "species": [
                    {
                        "element": "W",
                        "occu": 1
                    }
                ],
                "abc": [
                    0.1637088,
                    0.8362912,
                    0.5
                ],
                "xyz": [
                    2.788434595,
                    3.5863627190388483,
                    2.85552998
                ],
                "label": "W",
                "properties": {}
            },
            {
                "species": [
                    {
                        "element": "O",
                        "occu": 1
                    }
                ],
                "abc": [
                    0.89670778,
                    0.64709063,
                    0.24133827
                ],
                "xyz": [
                    6.5904390415632825,
                    -1.331015561502542,
                    1.3781929056094426
                ],
                "label": "O",
                "properties": {}
            },
            {
                "species": [
                    {
                        "element": "O",
                        "occu": 1
                    }
                ],
                "abc": [
                    0.10329222,
                    0.35290937,
                    0.75866173
                ],
                "xyz": [
                    -1.0135698515632834,
                    1.331015561502543,
                    4.332867054390558
                ],
                "label": "O",
                "properties": {}
            },
            {
                "species": [
                    {
                        "element": "O",
                        "occu": 1
                    }
                ],
                "abc": [
                    0.35290937,
                    0.10329222,
                    0.75866173
                ],
                "xyz": [
                    -1.0135698515632834,
                    -1.331015561502543,
                    4.332867054390558
                ],
                "label": "O",
                "properties": {}
            },
            {
                "species": [
                    {
                        "element": "O",
                        "occu": 1
                    }
                ],
                "abc": [
                    0.64709063,
                    0.89670778,
                    0.24133827
                ],
                "xyz": [
                    6.5904390415632825,
                    1.331015561502542,
                    1.3781929056094426
                ],
                "label": "O",
                "properties": {}
            },
            {
                "species": [
                    {
                        "element": "O",
                        "occu": 1
                    }
                ],
                "abc": [
                    0.78351105,
                    0.31488686,
                    0.35190415
                ],
                "xyz": [
                    3.9127573609006427,
                    -2.498811036767804,
                    2.009706869259314
                ],
                "label": "O",
                "properties": {}
            },
            {
                "species": [
                    {
                        "element": "O",
                        "occu": 1
                    }
                ],
                "abc": [
                    0.21648895,
                    0.68511314,
                    0.64809585
                ],
                "xyz": [
                    1.664111829099356,
                    2.4988110367678034,
                    3.701353090740686
                ],
                "label": "O",
                "properties": {}
            },
            {
                "species": [
                    {
                        "element": "O",
                        "occu": 1
                    }
                ],
                "abc": [
                    0.68511314,
                    0.21648895,
                    0.64809585
                ],
                "xyz": [
                    1.664111829099356,
                    -2.4988110367678034,
                    3.701353090740686
                ],
                "label": "O",
                "properties": {}
            },
            {
                "species": [
                    {
                        "element": "O",
                        "occu": 1
                    }
                ],
                "abc": [
                    0.31488686,
                    0.78351105,
                    0.35190415
                ],
                "xyz": [
                    3.9127573609006427,
                    2.498811036767804,
                    2.009706869259314
                ],
                "label": "O",
                "properties": {}
            },
            {
                "species": [
                    {
                        "element": "O",
                        "occu": 1
                    }
                ],
                "abc": [
                    0.04249321,
                    0.30213216,
                    0.093241
                ],
                "xyz": [
                    1.3016063673341816,
                    1.384454084273379,
                    0.5324893788413184
                ],
                "label": "O",
                "properties": {}
            },
            {
                "species": [
                    {
                        "element": "O",
                        "occu": 1
                    }
                ],
                "abc": [
                    0.95750679,
                    0.69786784,
                    0.906759
                ],
                "xyz": [
                    4.275262822665818,
                    -1.3844540842733788,
                    5.178570581158682
                ],
                "label": "O",
                "properties": {}
            },
            {
                "species": [
                    {
                        "element": "O",
                        "occu": 1
                    }
                ],
                "abc": [
                    0.69786784,
                    0.95750679,
                    0.906759
                ],
                "xyz": [
                    4.275262822665818,
                    1.3844540842733788,
                    5.178570581158682
                ],
                "label": "O",
                "properties": {}
            },
            {
                "species": [
                    {
                        "element": "O",
                        "occu": 1
                    }
                ],
                "abc": [
                    0.30213216,
                    0.04249321,
                    0.093241
                ],
                "xyz": [
                    1.3016063673341816,
                    -1.384454084273379,
                    0.5324893788413184
                ],
                "label": "O",
                "properties": {}
            },
            {
                "species": [
                    {
                        "element": "O",
                        "occu": 1
                    }
                ],
                "abc": [
                    0.0222051,
                    0.0222051,
                    0.33893353
                ],
                "xyz": [
                    -1.2406321170799794,
                    0.0,
                    1.9357320507740514
                ],
                "label": "O",
                "properties": {}
            },
            {
                "species": [
                    {
                        "element": "O",
                        "occu": 1
                    }
                ],
                "abc": [
                    0.9777949,
                    0.9777949,
                    0.66106647
                ],
                "xyz": [
                    6.817501307079979,
                    0.0,
                    3.7753279092259486
                ],
                "label": "O",
                "properties": {}
            },
            {
                "species": [
                    {
                        "element": "O",
                        "occu": 1
                    }
                ],
                "abc": [
                    0.44616504,
                    0.44616504,
                    0.14208605
                ],
                "xyz": [
                    3.798177293755197,
                    0.0,
                    0.8114021022027461
                ],
                "label": "O",
                "properties": {}
            },
            {
                "species": [
                    {
                        "element": "O",
                        "occu": 1
                    }
                ],
                "abc": [
                    0.55383496,
                    0.55383496,
                    0.85791395
                ],
                "xyz": [
                    1.778691896244803,
                    0.0,
                    4.899657857797254
                ],
                "label": "O",
                "properties": {}
            }
        ]
    },
    "spacegroup": {
        "source": "spglib",
        "symbol": "C2/m",
        "number": 12,
        "point_group": "2/m",
        "crystal_system": "monoclinic",
        "hall": "-C 2y"
    },
    "dielectric": {
        "epsilon_ionic": [
            [
                10.02541453,
                -0.0,
                -0.3704197
            ],
            [
                -0.0,
                28.10270401,
                2e-08
            ],
            [
                -0.3704197,
                2e-08,
                9.09713469
            ]
        ],
        "epsilon_ionic_avg": 15.741751076666667,
        "epsilon_ionic_eig": [
            10.155106757568399,
            8.967442462431602,
            28.102704009999997
        ],
        "epsilon_electronic": [
            [
                4.5967518,
                0.0,
                0.05365911
            ],
            [
                0.0,
                4.57446922,
                0.0
            ],
            [
                0.05365788,
                0.0,
                4.98546826
            ]
        ],
        "epsilon_electronic_avg": 4.718896426666667,
        "epsilon_electronic_eig": [
            4.589480777028067,
            4.992739282971933,
            4.57446922
        ]
    },
    "phonon": {
        "lowest_freq": -0.06956066438889638,
        "frequency": [
            -0.06956066438889638,
            -0.029597311191167566,
            -0.024062186088221468,
            0.3607770617669692,
            0.6219698895718611,
            1.9126054423422345,
            2.041720349672274,
            2.1815505433755167,
            2.4630879973946107,
            2.888911809588309,
            3.123430372656373,
            3.21472511695621,
            3.4158199526485253,
            3.5792163467002984,
            3.757671584248693,
            3.7999875532485436,
            4.165678152879505,
            4.350956634661005,
            4.610173074113043,
            5.1261829206283505,
            5.3007272538400025,
            5.347118504505662,
            5.364040617696214,
            5.705593517085614,
            5.7708513383500195,
            5.888578704496823,
            6.631253044864519,
            6.669976136988405,
            7.035555780257213,
            7.039306330193128,
            7.335118926318208,
            7.428231642244067,
            7.700468431488898,
            8.075444500991491,
            8.225962868747965,
            8.907663435940986,
            9.033139062768802,
            9.260633168635767,
            9.356395352523316,
            9.425367107827235,
            10.083213062950023,
            10.43035518122675,
            10.510041583050372,
            10.6838283252611,
            10.692273855225116,
            10.745952008469985,
            11.631870048403576,
            11.81141997052075,
            11.88525745562535,
            12.215930715850659,
            12.549371764234984,
            13.411266253767423,
            13.977490710223297,
            14.527512471542842,
            14.637561553235248,
            15.487423788376246,
            16.783573520751936,
            17.131716958780405,
            18.363128874993713,
            19.310820430697273,
            20.541975248907363,
            20.594911368921093,
            21.37084082613,
            21.578787079500938,
            23.021839758277622,
            23.40051622611636,
            23.472677812716707,
            23.900337611212144,
            24.977543339540915,
            25.123147952861803,
            25.828331937281504,
            26.421824794092057
        ]
    },
    "born_effective_charge": {
        "avg_abs_trace": 2.8864365277777773,
        "tensors": [
            [
                [
                    5.31955,
                    -6e-05,
                    -0.26356
                ],
                [
                    -0.0,
                    4.74275,
                    -0.0
                ],
                [
                    0.16043,
                    -4e-05,
                    4.37828
                ]
            ],
            [
                [
                    5.31955,
                    6e-05,
                    -0.26356
                ],
                [
                    -0.0,
                    4.74231,
                    -0.0
                ],
                [
                    0.16043,
                    4e-05,
                    4.37828
                ]
            ],
            [
                [
                    1.52826,
                    -0.0,
                    0.15786
                ],
                [
                    2e-05,
                    1.22961,
                    -0.0001
                ],
                [
                    0.09861,
                    0.0,
                    1.5726
                ]
            ],
            [
                [
                    1.5285,
                    -0.0,
                    0.15789
                ],
                [
                    -2e-05,
                    1.22961,
                    0.0001
                ],
                [
                    0.09842,
                    0.0,
                    1.57279
                ]
            ],
            [
                [
                    4.99381,
                    -0.0,
                    0.09294
                ],
                [
                    9e-05,
                    5.53259,
                    0.00024
                ],
                [
                    -0.02938,
                    0.0,
                    5.84167
                ]
            ],
            [
                [
                    4.99398,
                    -0.0,
                    0.09318
                ],
                [
                    -9e-05,
                    5.53259,
                    -0.00024
                ],
                [
                    -0.02945,
                    0.0,
                    5.84154
                ]
            ],
            [
                [
                    4.72755,
                    -0.00022,
                    0.11953
                ],
                [
                    -0.0,
                    5.21203,
                    -0.0
                ],
                [
                    -0.00446,
                    0.00011,
                    6.87709
                ]
            ],
            [
                [
                    4.72755,
                    0.00022,
                    0.11953
                ],
                [
                    0.0,
                    5.21213,
                    -0.0
                ],
                [
                    -0.00446,
                    -0.00011,
                    6.87709
                ]
            ],
            [
                [
                    -2.33298,
                    -0.28763,
                    -0.8912
                ],
                [
                    -0.52904,
                    -1.85351,
                    0.62163
                ],
                [
                    -1.06771,
                    0.63392,
                    -3.22665
                ]
            ],
            [
                [
                    -2.33289,
                    -0.28767,
                    -0.89129
                ],
                [
                    -0.52888,
                    -1.85372,
                    0.62172
                ],
                [
                    -1.0676,
                    0.63363,
                    -3.22649
                ]
            ],
            [
                [
                    -2.33289,
                    0.28767,
                    -0.89129
                ],
                [
                    0.52904,
                    -1.85351,
                    -0.62163
                ],
                [
                    -1.0676,
                    -0.63363,
                    -3.22649
                ]
            ],
            [
                [
                    -2.33298,
                    0.28763,
                    -0.8912
                ],
                [
                    0.52888,
                    -1.85372,
                    -0.62172
                ],
                [
                    -1.06771,
                    -0.63392,
                    -3.22665
                ]
            ],
            [
                [
                    -1.94301,
                    -0.99436,
                    1.08018
                ],
                [
                    -1.17499,
                    -1.9102,
                    0.85402
                ],
                [
                    1.17781,
                    0.95878,
                    -2.22483
                ]
            ],
            [
                [
                    -1.94298,
                    -0.9942,
                    1.08024
                ],
                [
                    -1.17489,
                    -1.91042,
                    0.85408
                ],
                [
                    1.17777,
                    0.95878,
                    -2.2249
                ]
            ],
            [
                [
                    -1.94298,
                    0.9942,
                    1.08024
                ],
                [
                    1.17499,
                    -1.9102,
                    -0.85402
                ],
                [
                    1.17777,
                    -0.95878,
                    -2.2249
                ]
            ],
            [
                [
                    -1.94301,
                    0.99436,
                    1.08018
                ],
                [
                    1.17489,
                    -1.91042,
                    -0.85408
                ],
                [
                    1.17781,
                    -0.95878,
                    -2.22483
                ]
            ],
            [
                [
                    -1.66063,
                    1.25555,
                    0.36717
                ],
                [
                    1.06144,
                    -2.66141,
                    -0.44479
                ],
                [
                    0.61559,
                    -0.72271,
                    -1.40476
                ]
            ],
            [
                [
                    -1.66078,
                    1.25568,
                    0.36719
                ],
                [
                    1.06106,
                    -2.66167,
                    -0.4452
                ],
                [
                    0.61595,
                    -0.72319,
                    -1.40492
                ]
            ],
            [
                [
                    -1.66078,
                    -1.25568,
                    0.36719
                ],
                [
                    -1.06144,
                    -2.66141,
                    0.44479
                ],
                [
                    0.61595,
                    0.72319,
                    -1.40492
                ]
            ],
            [
                [
                    -1.66063,
                    -1.25555,
                    0.36717
                ],
                [
                    -1.06106,
                    -2.66167,
                    0.4452
                ],
                [
                    0.61559,
                    0.72271,
                    -1.40476
                ]
            ],
            [
                [
                    -1.56149,
                    -0.0,
                    -0.39949
                ],
                [
                    -0.0,
                    -2.16298,
                    -0.00012
                ],
                [
                    -0.15821,
                    0.0,
                    -2.97347
                ]
            ],
            [
                [
                    -1.5615,
                    -0.0,
                    -0.39962
                ],
                [
                    0.0,
                    -2.16298,
                    0.00012
                ],
                [
                    -0.15791,
                    0.0,
                    -2.97292
                ]
            ],
            [
                [
                    -3.13486,
                    -0.0,
                    -0.8197
                ],
                [
                    -0.00012,
                    -1.7029,
                    0.00013
                ],
                [
                    -1.51868,
                    0.0,
                    -1.98394
                ]
            ],
            [
                [
                    -3.13437,
                    -0.0,
                    -0.81956
                ],
                [
                    0.00012,
                    -1.7029,
                    -0.00013
                ],
                [
                    -1.51896,
                    0.0,
                    -1.98391
                ]
            ]
        ]
    },
    "band_gap": 3.5159,
    "is_direct": false,
    "formula": "YAg(WO4)2"
}