{
    "mp_id": "mp-1190911",
    "nelements": 3,
    "nsites": 22,
    "elements": [
        "O",
        "Rb",
        "V"
    ],
    "structure": {
        "@module": "pymatgen.core.structure",
        "@class": "Structure",
        "charge": null,
        "lattice": {
            "matrix": [
                [
                    8.70245016,
                    0.0,
                    0.0
                ],
                [
                    -4.35122508,
                    7.53654317,
                    0.0
                ],
                [
                    0.0,
                    0.0,
                    5.347339
                ]
            ],
            "a": 8.70245016,
            "b": 8.702450381938103,
            "c": 5.347339,
            "alpha": 90.0,
            "beta": 90.0,
            "gamma": 119.99999915636941,
            "volume": 350.7126681512408
        },
        "sites": [
            {
                "species": [
                    {
                        "element": "Rb",
                        "occu": 1
                    }
                ],
                "abc": [
                    0.0,
                    0.61485742,
                    0.18129176
                ],
                "xyz": [
                    -2.6753830265280936,
                    4.633899489224821,
                    0.9694284986266399
                ],
                "label": "Rb",
                "properties": {}
            },
            {
                "species": [
                    {
                        "element": "Rb",
                        "occu": 1
                    }
                ],
                "abc": [
                    0.61485742,
                    0.0,
                    0.18129176
                ],
                "xyz": [
                    5.350766053056187,
                    0.0,
                    0.9694284986266399
                ],
                "label": "Rb",
                "properties": {}
            },
            {
                "species": [
                    {
                        "element": "Rb",
                        "occu": 1
                    }
                ],
                "abc": [
                    0.38514258,
                    0.38514258,
                    0.18129176
                ],
                "xyz": [
                    1.6758420534719063,
                    2.9026436807751788,
                    0.9694284986266399
                ],
                "label": "Rb",
                "properties": {}
            },
            {
                "species": [
                    {
                        "element": "V",
                        "occu": 1
                    }
                ],
                "abc": [
                    0.77013087,
                    0.77013087,
                    0.67068385
                ],
                "xyz": [
                    3.3510127564262198,
                    5.8041245483046575,
                    3.5863739077751497
                ],
                "label": "V",
                "properties": {}
            },
            {
                "species": [
                    {
                        "element": "V",
                        "occu": 1
                    }
                ],
                "abc": [
                    0.0,
                    0.22986913,
                    0.67068385
                ],
                "xyz": [
                    -1.0002123235737803,
                    1.732418621695342,
                    3.5863739077751497
                ],
                "label": "V",
                "properties": {}
            },
            {
                "species": [
                    {
                        "element": "V",
                        "occu": 1
                    }
                ],
                "abc": [
                    0.22986913,
                    0.0,
                    0.67068385
                ],
                "xyz": [
                    2.0004246471475606,
                    0.0,
                    3.5863739077751497
                ],
                "label": "V",
                "properties": {}
            },
            {
                "species": [
                    {
                        "element": "V",
                        "occu": 1
                    }
                ],
                "abc": [
                    0.333333,
                    0.666667,
                    0.65685555
                ],
                "xyz": [
                    -4.351225080245769e-06,
                    5.02436462551439,
                    3.5124292998814495
                ],
                "label": "V",
                "properties": {}
            },
            {
                "species": [
                    {
                        "element": "V",
                        "occu": 1
                    }
                ],
                "abc": [
                    0.666667,
                    0.333333,
                    0.65685555
                ],
                "xyz": [
                    4.3512294312250805,
                    2.51217854448561,
                    3.5124292998814495
                ],
                "label": "V",
                "properties": {}
            },
            {
                "species": [
                    {
                        "element": "O",
                        "occu": 1
                    }
                ],
                "abc": [
                    0.16828831,
                    0.46005527,
                    0.54491388
                ],
                "xyz": [
                    -0.537283398724542,
                    3.467226402941006,
                    2.9138392421653196
                ],
                "label": "O",
                "properties": {}
            },
            {
                "species": [
                    {
                        "element": "O",
                        "occu": 1
                    }
                ],
                "abc": [
                    0.29176696,
                    0.83171169,
                    0.54491388
                ],
                "xyz": [
                    -1.0798773371224715,
                    6.268231056678657,
                    2.9138392421653196
                ],
                "label": "O",
                "properties": {}
            },
            {
                "species": [
                    {
                        "element": "O",
                        "occu": 1
                    }
                ],
                "abc": [
                    0.53994473,
                    0.70823304,
                    0.54491388
                ],
                "xyz": [
                    1.6171607358470137,
                    5.337628880380336,
                    2.9138392421653196
                ],
                "label": "O",
                "properties": {}
            },
            {
                "species": [
                    {
                        "element": "O",
                        "occu": 1
                    }
                ],
                "abc": [
                    0.70823304,
                    0.53994473,
                    0.54491388
                ],
                "xyz": [
                    3.8139416812754576,
                    4.069316767058994,
                    2.9138392421653196
                ],
                "label": "O",
                "properties": {}
            },
            {
                "species": [
                    {
                        "element": "O",
                        "occu": 1
                    }
                ],
                "abc": [
                    0.83171169,
                    0.29176696,
                    0.54491388
                ],
                "xyz": [
                    5.9683858158470136,
                    2.198914289619663,
                    2.9138392421653196
                ],
                "label": "O",
                "properties": {}
            },
            {
                "species": [
                    {
                        "element": "O",
                        "occu": 1
                    }
                ],
                "abc": [
                    0.46005527,
                    0.16828831,
                    0.54491388
                ],
                "xyz": [
                    3.2713477428775284,
                    1.2683121133213426,
                    2.9138392421653196
                ],
                "label": "O",
                "properties": {}
            },
            {
                "species": [
                    {
                        "element": "O",
                        "occu": 1
                    }
                ],
                "abc": [
                    0.0,
                    0.83130013,
                    0.61232605
                ],
                "xyz": [
                    -3.6171739746632605,
                    6.2651293169716125,
                    3.2743149678809496
                ],
                "label": "O",
                "properties": {}
            },
            {
                "species": [
                    {
                        "element": "O",
                        "occu": 1
                    }
                ],
                "abc": [
                    0.83130013,
                    0.0,
                    0.61232605
                ],
                "xyz": [
                    7.234347949326521,
                    0.0,
                    3.2743149678809496
                ],
                "label": "O",
                "properties": {}
            },
            {
                "species": [
                    {
                        "element": "O",
                        "occu": 1
                    }
                ],
                "abc": [
                    0.16869987,
                    0.16869987,
                    0.61232605
                ],
                "xyz": [
                    0.7340511053367396,
                    1.2714138530283878,
                    3.2743149678809496
                ],
                "label": "O",
                "properties": {}
            },
            {
                "species": [
                    {
                        "element": "O",
                        "occu": 1
                    }
                ],
                "abc": [
                    0.74610135,
                    0.74610135,
                    0.97207239
                ],
                "xyz": [
                    3.246454906341858,
                    5.623025033470279,
                    5.19800060187021
                ],
                "label": "O",
                "properties": {}
            },
            {
                "species": [
                    {
                        "element": "O",
                        "occu": 1
                    }
                ],
                "abc": [
                    0.0,
                    0.25389865,
                    0.97207239
                ],
                "xyz": [
                    -1.104770173658142,
                    1.9135181365297205,
                    5.19800060187021
                ],
                "label": "O",
                "properties": {}
            },
            {
                "species": [
                    {
                        "element": "O",
                        "occu": 1
                    }
                ],
                "abc": [
                    0.25389865,
                    0.0,
                    0.97207239
                ],
                "xyz": [
                    2.209540347316284,
                    0.0,
                    5.19800060187021
                ],
                "label": "O",
                "properties": {}
            },
            {
                "species": [
                    {
                        "element": "O",
                        "occu": 1
                    }
                ],
                "abc": [
                    0.333333,
                    0.666667,
                    0.96453623
                ],
                "xyz": [
                    -4.351225080245769e-06,
                    5.02436462551439,
                    5.15770219959197
                ],
                "label": "O",
                "properties": {}
            },
            {
                "species": [
                    {
                        "element": "O",
                        "occu": 1
                    }
                ],
                "abc": [
                    0.666667,
                    0.333333,
                    0.96453623
                ],
                "xyz": [
                    4.3512294312250805,
                    2.51217854448561,
                    5.15770219959197
                ],
                "label": "O",
                "properties": {}
            }
        ]
    },
    "spacegroup": {
        "source": "spglib",
        "symbol": "P31m",
        "number": 157,
        "point_group": "3m",
        "crystal_system": "trigonal",
        "hall": "P 3 -2"
    },
    "dielectric": {
        "epsilon_ionic": [
            [
                15.68670782,
                -0.00023052,
                -5.382e-05
            ],
            [
                -0.00023052,
                15.6866884,
                6.302e-05
            ],
            [
                -5.382e-05,
                6.302e-05,
                3.03734629
            ]
        ],
        "epsilon_ionic_avg": 11.470247503333335,
        "epsilon_ionic_eig": [
            15.68692883495003,
            15.686467385592923,
            3.037346289457048
        ],
        "epsilon_electronic": [
            [
                5.06747161,
                0.0,
                0.0
            ],
            [
                0.0,
                5.06747191,
                0.0
            ],
            [
                0.0,
                -0.0,
                2.90804941
            ]
        ],
        "epsilon_electronic_avg": 4.34766431,
        "epsilon_electronic_eig": [
            5.06747161,
            5.06747191,
            2.90804941
        ]
    },
    "phonon": {
        "lowest_freq": -0.046524642637557,
        "frequency": [
            -0.046524642637557,
            -0.046524641245476756,
            -0.04570063405375586,
            1.4840821151053238,
            1.484082124986184,
            1.5362431707423532,
            2.1072411457463254,
            2.10724115154538,
            2.198821503220218,
            2.2657450568613062,
            2.458255519550553,
            2.4582555692606274,
            2.770561431010247,
            2.770561431010247,
            2.8368760695529445,
            2.925505091281252,
            3.5652863517828983,
            3.565286386057864,
            3.7973730559852314,
            4.229589546958737,
            4.229589590296298,
            4.898426956086792,
            4.898426978538909,
            5.047827705366368,
            5.963947189522928,
            6.589041293825635,
            6.589041423647322,
            7.028229555535672,
            7.028229555535672,
            8.16139860148205,
            8.526303131110444,
            8.526303159774699,
            8.806502652902857,
            8.806502736159562,
            9.098835371841554,
            9.886673511707231,
            9.886673536427388,
            9.974018803106784,
            9.974018888869653,
            10.493489364615598,
            10.493598969816679,
            10.493599039687881,
            11.129272480651695,
            11.129272480651695,
            12.251361818452274,
            12.35319347778317,
            12.587841799283412,
            12.58784188665348,
            13.908805107068057,
            14.4158011626745,
            14.415801196581757,
            15.320755003941764,
            16.298748800372355,
            19.440332375075283,
            19.440332437934323,
            20.963088424501816,
            20.963088482794785,
            24.580803002053315,
            25.87763777598929,
            26.944780281180233,
            26.94478041723634,
            27.863169026729828,
            27.940189938712436,
            28.76730636575527,
            28.76730636575527,
            29.270193551799593
        ]
    },
    "born_effective_charge": {
        "avg_abs_trace": 2.711039090909091,
        "tensors": [
            [
                [
                    1.20029,
                    -0.02716,
                    0.00886
                ],
                [
                    -0.02621,
                    1.23134,
                    -0.01571
                ],
                [
                    -0.00832,
                    0.01441,
                    1.48097
                ]
            ],
            [
                [
                    1.24683,
                    0.0,
                    -0.018
                ],
                [
                    -0.00068,
                    1.18503,
                    -0.00012
                ],
                [
                    0.01664,
                    -0.0,
                    1.48097
                ]
            ],
            [
                [
                    1.20029,
                    0.02716,
                    0.00886
                ],
                [
                    0.02683,
                    1.23113,
                    0.01571
                ],
                [
                    -0.00832,
                    -0.01441,
                    1.48097
                ]
            ],
            [
                [
                    7.04033,
                    0.71791,
                    0.07721
                ],
                [
                    0.71863,
                    7.86971,
                    0.13224
                ],
                [
                    0.00629,
                    0.01089,
                    2.23949
                ]
            ],
            [
                [
                    7.04033,
                    -0.71791,
                    0.07721
                ],
                [
                    -0.71794,
                    7.86919,
                    -0.13288
                ],
                [
                    0.00629,
                    -0.01089,
                    2.23949
                ]
            ],
            [
                [
                    8.2834,
                    0.0,
                    -0.15431
                ],
                [
                    0.00033,
                    6.62638,
                    0.00089
                ],
                [
                    -0.01257,
                    -0.0,
                    2.23949
                ]
            ],
            [
                [
                    5.29189,
                    -0.43807,
                    -1e-05
                ],
                [
                    0.43751,
                    5.29194,
                    0.0004
                ],
                [
                    -0.0,
                    -0.0,
                    2.55569
                ]
            ],
            [
                [
                    5.29189,
                    0.43807,
                    -1e-05
                ],
                [
                    -0.43801,
                    5.29157,
                    -0.00031
                ],
                [
                    -0.0,
                    -0.0,
                    2.55569
                ]
            ],
            [
                [
                    -1.45332,
                    -1.09188,
                    -0.10413
                ],
                [
                    -1.41135,
                    -5.92973,
                    -0.03276
                ],
                [
                    -0.05194,
                    -0.08947,
                    -0.88895
                ]
            ],
            [
                [
                    -3.72677,
                    2.72401,
                    0.02365
                ],
                [
                    2.40463,
                    -3.65652,
                    0.10649
                ],
                [
                    -0.05151,
                    0.08971,
                    -0.88895
                ]
            ],
            [
                [
                    -5.89471,
                    -1.15287,
                    0.08033
                ],
                [
                    -1.47199,
                    -1.48843,
                    -0.07393
                ],
                [
                    0.10345,
                    -0.00025,
                    -0.88895
                ]
            ],
            [
                [
                    -1.45332,
                    1.09188,
                    -0.10413
                ],
                [
                    1.41121,
                    -5.92973,
                    0.03278
                ],
                [
                    -0.05194,
                    0.08947,
                    -0.88895
                ]
            ],
            [
                [
                    -5.89471,
                    1.15287,
                    0.08033
                ],
                [
                    1.4724,
                    -1.48837,
                    0.07385
                ],
                [
                    0.10345,
                    0.00025,
                    -0.88895
                ]
            ],
            [
                [
                    -3.72677,
                    -2.72401,
                    0.02365
                ],
                [
                    -2.40434,
                    -3.65628,
                    -0.10635
                ],
                [
                    -0.05151,
                    -0.08971,
                    -0.88895
                ]
            ],
            [
                [
                    -4.68886,
                    -1.77139,
                    0.13773
                ],
                [
                    -1.77215,
                    -2.64396,
                    -0.23861
                ],
                [
                    0.10902,
                    -0.18883,
                    -0.58507
                ]
            ],
            [
                [
                    -1.62077,
                    0.0,
                    -0.27556
                ],
                [
                    -3e-05,
                    -5.71241,
                    0.0
                ],
                [
                    -0.21805,
                    -0.0,
                    -0.58507
                ]
            ],
            [
                [
                    -4.68886,
                    1.77139,
                    0.13773
                ],
                [
                    1.77137,
                    -2.64338,
                    0.23869
                ],
                [
                    0.10902,
                    0.18883,
                    -0.58507
                ]
            ],
            [
                [
                    -0.67114,
                    -0.00935,
                    0.34933
                ],
                [
                    -0.00951,
                    -0.68232,
                    0.60604
                ],
                [
                    0.08534,
                    0.14781,
                    -1.7029
                ]
            ],
            [
                [
                    -0.67114,
                    0.00935,
                    0.34933
                ],
                [
                    0.00931,
                    -0.68233,
                    -0.60528
                ],
                [
                    0.08534,
                    -0.14781,
                    -1.7029
                ]
            ],
            [
                [
                    -0.68762,
                    0.0,
                    -0.6977
                ],
                [
                    -0.00014,
                    -0.6657,
                    -0.00056
                ],
                [
                    -0.17068,
                    -0.0,
                    -1.7029
                ]
            ],
            [
                [
                    -0.70862,
                    0.02657,
                    -0.00017
                ],
                [
                    -0.02654,
                    -0.70861,
                    -0.00059
                ],
                [
                    -0.0,
                    -0.0,
                    -2.03757
                ]
            ],
            [
                [
                    -0.70862,
                    -0.02657,
                    -0.00017
                ],
                [
                    0.02669,
                    -0.70853,
                    0.0
                ],
                [
                    -0.0,
                    -0.0,
                    -2.03757
                ]
            ]
        ]
    },
    "band_gap": 2.3242,
    "is_direct": false,
    "formula": "Rb3V5O14"
}