{
    "mp_id": "mp-1079050",
    "nelements": 3,
    "nsites": 10,
    "elements": [
        "As",
        "La",
        "O"
    ],
    "structure": {
        "@module": "pymatgen.core.structure",
        "@class": "Structure",
        "charge": null,
        "lattice": {
            "matrix": [
                [
                    4.38383492,
                    0.0,
                    1.614e-05
                ],
                [
                    0.0,
                    5.2958451,
                    0.0
                ],
                [
                    -1.65326805,
                    0.0,
                    5.959836
                ]
            ],
            "a": 4.383834920029711,
            "b": 5.2958451,
            "c": 6.1848961504658115,
            "alpha": 90.0,
            "beta": 105.50388872089115,
            "gamma": 90.0,
            "volume": 138.36435352536938
        },
        "sites": [
            {
                "species": [
                    {
                        "element": "La",
                        "occu": 1
                    }
                ],
                "abc": [
                    0.33475372,
                    0.25,
                    0.70059608
                ],
                "xyz": [
                    0.30923193231665835,
                    1.323961275,
                    4.1754431419679205
                ],
                "label": "La",
                "properties": {}
            },
            {
                "species": [
                    {
                        "element": "La",
                        "occu": 1
                    }
                ],
                "abc": [
                    0.66524628,
                    0.75,
                    0.29940392
                ],
                "xyz": [
                    2.4213349376833415,
                    3.971883825,
                    1.7844089980320792
                ],
                "label": "La",
                "properties": {}
            },
            {
                "species": [
                    {
                        "element": "As",
                        "occu": 1
                    }
                ],
                "abc": [
                    0.07829952,
                    0.25,
                    0.14150894
                ],
                "xyz": [
                    0.10929996070387138,
                    1.323961275,
                    0.8433713386880928
                ],
                "label": "As",
                "properties": {}
            },
            {
                "species": [
                    {
                        "element": "As",
                        "occu": 1
                    }
                ],
                "abc": [
                    0.92170048,
                    0.75,
                    0.85849106
                ],
                "xyz": [
                    2.621266909296129,
                    3.971883825,
                    5.116480801311908
                ],
                "label": "As",
                "properties": {}
            },
            {
                "species": [
                    {
                        "element": "O",
                        "occu": 1
                    }
                ],
                "abc": [
                    0.66224697,
                    0.25,
                    0.1165299
                ],
                "xyz": [
                    2.7105262322104973,
                    1.323961275,
                    0.6945097817624958
                ],
                "label": "O",
                "properties": {}
            },
            {
                "species": [
                    {
                        "element": "O",
                        "occu": 1
                    }
                ],
                "abc": [
                    0.33775303,
                    0.75,
                    0.8834701
                ],
                "xyz": [
                    0.02004063778950238,
                    3.971883825,
                    5.265342358237505
                ],
                "label": "O",
                "properties": {}
            },
            {
                "species": [
                    {
                        "element": "O",
                        "occu": 1
                    }
                ],
                "abc": [
                    0.1932071,
                    0.49970839,
                    0.34236849
                ],
                "xyz": [
                    0.28096114592818733,
                    2.646378228610389,
                    2.0404631703302343
                ],
                "label": "O",
                "properties": {}
            },
            {
                "species": [
                    {
                        "element": "O",
                        "occu": 1
                    }
                ],
                "abc": [
                    0.8067929,
                    0.99970839,
                    0.65763151
                ],
                "xyz": [
                    2.4496057240718123,
                    5.294300778610389,
                    3.919388969669766
                ],
                "label": "O",
                "properties": {}
            },
            {
                "species": [
                    {
                        "element": "O",
                        "occu": 1
                    }
                ],
                "abc": [
                    0.8067929,
                    0.50029161,
                    0.65763151
                ],
                "xyz": [
                    2.4496057240718123,
                    2.649466871389611,
                    3.919388969669766
                ],
                "label": "O",
                "properties": {}
            },
            {
                "species": [
                    {
                        "element": "O",
                        "occu": 1
                    }
                ],
                "abc": [
                    0.1932071,
                    0.00029161,
                    0.34236849
                ],
                "xyz": [
                    0.28096114592818733,
                    0.001544321389611,
                    2.0404631703302343
                ],
                "label": "O",
                "properties": {}
            }
        ]
    },
    "spacegroup": {
        "source": "spglib",
        "symbol": "P2_1/m",
        "number": 11,
        "point_group": "2/m",
        "crystal_system": "monoclinic",
        "hall": "-P 2yb"
    },
    "dielectric": {
        "epsilon_ionic": [
            [
                12.00022596,
                -1.2e-07,
                1.54982604
            ],
            [
                -1.2e-07,
                48.13908658,
                -1.3e-07
            ],
            [
                1.54982604,
                -1.3e-07,
                12.16055993
            ]
        ],
        "epsilon_ionic_avg": 24.099957489999998,
        "epsilon_ionic_eig": [
            10.528494913637735,
            13.63229097636226,
            48.139086580000004
        ],
        "epsilon_electronic": [
            [
                5.06337855,
                0.0,
                0.10090529
            ],
            [
                0.0,
                5.02720284,
                0.0
            ],
            [
                0.11618446,
                0.0,
                4.95688999
            ]
        ],
        "epsilon_electronic_avg": 5.015823793333333,
        "epsilon_electronic_eig": [
            5.130793210748342,
            4.889475329251658,
            5.02720284
        ]
    },
    "phonon": {
        "lowest_freq": -0.08109957125939352,
        "frequency": [
            -0.08109957125939352,
            -0.05983202352546834,
            -0.053829882742390305,
            1.7923679874087,
            2.658426351283312,
            3.295571704803209,
            3.6561641389399266,
            3.6906330965682783,
            4.15798850710282,
            4.537713214326675,
            5.075901134133088,
            5.421055904762287,
            5.72046247357393,
            6.758812334123197,
            7.216707531544725,
            7.231250616348648,
            7.924759227390467,
            7.933218230342839,
            9.559916657196448,
            10.723470120105175,
            11.421039520087652,
            11.527786339393527,
            12.715611710566815,
            13.521519828193094,
            17.34862552058662,
            17.92764166891812,
            18.282932406571938,
            18.42070203424474,
            21.07300405452575,
            21.637340972198214
        ]
    },
    "born_effective_charge": {
        "avg_abs_trace": 2.836927333333333,
        "tensors": [
            [
                [
                    4.20653,
                    0.0,
                    0.09138
                ],
                [
                    2e-05,
                    3.95004,
                    0.0004
                ],
                [
                    0.02478,
                    0.0,
                    4.53216
                ]
            ],
            [
                [
                    4.20583,
                    0.0,
                    0.09127
                ],
                [
                    -2e-05,
                    3.95004,
                    -0.0004
                ],
                [
                    0.02401,
                    0.0,
                    4.53269
                ]
            ],
            [
                [
                    3.31158,
                    0.0,
                    0.62899
                ],
                [
                    -0.00027,
                    2.84763,
                    -1e-05
                ],
                [
                    0.54879,
                    0.0,
                    2.42902
                ]
            ],
            [
                [
                    3.31195,
                    0.0,
                    0.62923
                ],
                [
                    0.00027,
                    2.84763,
                    1e-05
                ],
                [
                    0.54867,
                    0.0,
                    2.42881
                ]
            ],
            [
                [
                    -3.19771,
                    0.0,
                    -0.20354
                ],
                [
                    -0.00077,
                    -1.79534,
                    0.00031
                ],
                [
                    -0.43154,
                    0.0,
                    -1.77745
                ]
            ],
            [
                [
                    -3.19859,
                    0.0,
                    -0.20353
                ],
                [
                    0.00077,
                    -1.79534,
                    -0.00031
                ],
                [
                    -0.43161,
                    0.0,
                    -1.777
                ]
            ],
            [
                [
                    -2.15996,
                    -0.24404,
                    -0.25846
                ],
                [
                    -0.06895,
                    -2.50147,
                    -0.50567
                ],
                [
                    -0.0708,
                    -0.14207,
                    -2.59199
                ]
            ],
            [
                [
                    -2.15983,
                    0.24402,
                    -0.25844
                ],
                [
                    0.06895,
                    -2.50147,
                    0.50567
                ],
                [
                    -0.07075,
                    0.14228,
                    -2.59213
                ]
            ],
            [
                [
                    -2.15983,
                    -0.24402,
                    -0.25844
                ],
                [
                    -0.06919,
                    -2.50086,
                    -0.50575
                ],
                [
                    -0.07075,
                    -0.14228,
                    -2.59213
                ]
            ],
            [
                [
                    -2.15996,
                    0.24404,
                    -0.25846
                ],
                [
                    0.06919,
                    -2.50086,
                    0.50575
                ],
                [
                    -0.0708,
                    0.14207,
                    -2.59199
                ]
            ]
        ]
    },
    "band_gap": 2.5651,
    "is_direct": false,
    "formula": "LaAsO3"
}