{
    "mp_id": "mp-19123",
    "nelements": 4,
    "nsites": 16,
    "elements": [
        "Li",
        "O",
        "Rb",
        "V"
    ],
    "structure": {
        "@module": "pymatgen.core.structure",
        "@class": "Structure",
        "charge": null,
        "lattice": {
            "matrix": [
                [
                    2.92742283,
                    -5.84649936,
                    0.0
                ],
                [
                    2.92742283,
                    5.84649936,
                    0.0
                ],
                [
                    0.0,
                    0.0,
                    7.83920154
                ]
            ],
            "a": 6.538452354501454,
            "b": 6.538452354501454,
            "c": 7.83920154,
            "alpha": 90.0,
            "beta": 90.0,
            "gamma": 126.80448124030917,
            "volume": 268.3386234416739
        },
        "sites": [
            {
                "species": [
                    {
                        "element": "Rb",
                        "occu": 1
                    }
                ],
                "abc": [
                    0.39629397,
                    0.60370603,
                    0.4510936
                ],
                "xyz": [
                    2.92742283,
                    1.212634476046282,
                    3.536213643804144
                ],
                "label": "Rb",
                "properties": {}
            },
            {
                "species": [
                    {
                        "element": "Rb",
                        "occu": 1
                    }
                ],
                "abc": [
                    0.60370603,
                    0.39629397,
                    0.9510936
                ],
                "xyz": [
                    2.92742283,
                    -1.212634476046282,
                    7.455814413804144
                ],
                "label": "Rb",
                "properties": {}
            },
            {
                "species": [
                    {
                        "element": "Rb",
                        "occu": 1
                    }
                ],
                "abc": [
                    0.0616016,
                    0.9383984,
                    0.58969964
                ],
                "xyz": [
                    2.92742283,
                    5.126191930050048,
                    4.6227743260254455
                ],
                "label": "Rb",
                "properties": {}
            },
            {
                "species": [
                    {
                        "element": "Rb",
                        "occu": 1
                    }
                ],
                "abc": [
                    0.9383984,
                    0.0616016,
                    0.08969964
                ],
                "xyz": [
                    2.92742283,
                    -5.126191930050048,
                    0.7031735560254456
                ],
                "label": "Rb",
                "properties": {}
            },
            {
                "species": [
                    {
                        "element": "Li",
                        "occu": 1
                    }
                ],
                "abc": [
                    0.20081161,
                    0.79918839,
                    0.17094643
                ],
                "xyz": [
                    2.9274228299999994,
                    3.498409461308861,
                    1.3400835173135024
                ],
                "label": "Li",
                "properties": {}
            },
            {
                "species": [
                    {
                        "element": "Li",
                        "occu": 1
                    }
                ],
                "abc": [
                    0.79918839,
                    0.20081161,
                    0.67094643
                ],
                "xyz": [
                    2.9274228299999994,
                    -3.498409461308861,
                    5.259684287313502
                ],
                "label": "Li",
                "properties": {}
            },
            {
                "species": [
                    {
                        "element": "V",
                        "occu": 1
                    }
                ],
                "abc": [
                    0.68913256,
                    0.31086744,
                    0.38883205
                ],
                "xyz": [
                    2.92742283,
                    -2.2115267819903233,
                    3.048132805161357
                ],
                "label": "V",
                "properties": {}
            },
            {
                "species": [
                    {
                        "element": "V",
                        "occu": 1
                    }
                ],
                "abc": [
                    0.31086744,
                    0.68913256,
                    0.88883205
                ],
                "xyz": [
                    2.92742283,
                    2.2115267819903233,
                    6.967733575161358
                ],
                "label": "V",
                "properties": {}
            },
            {
                "species": [
                    {
                        "element": "O",
                        "occu": 1
                    }
                ],
                "abc": [
                    0.59782033,
                    0.88284989,
                    0.7820825
                ],
                "xyz": [
                    4.334547805729122,
                    1.6664251401210817,
                    6.130902338407051
                ],
                "label": "O",
                "properties": {}
            },
            {
                "species": [
                    {
                        "element": "O",
                        "occu": 1
                    }
                ],
                "abc": [
                    0.40217967,
                    0.11715011,
                    0.2820825
                ],
                "xyz": [
                    1.5202978542708772,
                    -1.6664251401210814,
                    2.21130156840705
                ],
                "label": "O",
                "properties": {}
            },
            {
                "species": [
                    {
                        "element": "O",
                        "occu": 1
                    }
                ],
                "abc": [
                    0.36602902,
                    0.63397098,
                    0.09352455
                ],
                "xyz": [
                    2.9274228299999994,
                    1.5665224976571452,
                    0.733157796387807
                ],
                "label": "O",
                "properties": {}
            },
            {
                "species": [
                    {
                        "element": "O",
                        "occu": 1
                    }
                ],
                "abc": [
                    0.63397098,
                    0.36602902,
                    0.59352455
                ],
                "xyz": [
                    2.9274228299999994,
                    -1.5665224976571452,
                    4.652758566387807
                ],
                "label": "O",
                "properties": {}
            },
            {
                "species": [
                    {
                        "element": "O",
                        "occu": 1
                    }
                ],
                "abc": [
                    0.11715011,
                    0.40217967,
                    0.7820825
                ],
                "xyz": [
                    1.5202978542708772,
                    1.6664251401210814,
                    6.130902338407051
                ],
                "label": "O",
                "properties": {}
            },
            {
                "species": [
                    {
                        "element": "O",
                        "occu": 1
                    }
                ],
                "abc": [
                    0.88284989,
                    0.59782033,
                    0.2820825
                ],
                "xyz": [
                    4.334547805729122,
                    -1.6664251401210817,
                    2.21130156840705
                ],
                "label": "O",
                "properties": {}
            },
            {
                "species": [
                    {
                        "element": "O",
                        "occu": 1
                    }
                ],
                "abc": [
                    0.83605886,
                    0.16394114,
                    0.42043972
                ],
                "xyz": [
                    2.92742283,
                    -3.929535819824659,
                    3.295911700501169
                ],
                "label": "O",
                "properties": {}
            },
            {
                "species": [
                    {
                        "element": "O",
                        "occu": 1
                    }
                ],
                "abc": [
                    0.16394114,
                    0.83605886,
                    0.92043972
                ],
                "xyz": [
                    2.92742283,
                    3.929535819824659,
                    7.215512470501169
                ],
                "label": "O",
                "properties": {}
            }
        ]
    },
    "spacegroup": {
        "source": "spglib",
        "symbol": "Cmc2_1",
        "number": 36,
        "point_group": "mm2",
        "crystal_system": "orthorhombic",
        "hall": "C 2c -2"
    },
    "dielectric": {
        "epsilon_ionic": [
            [
                5.70287411,
                0.0,
                -1.7e-07
            ],
            [
                0.0,
                5.23782538,
                2.225e-05
            ],
            [
                -1.7e-07,
                2.225e-05,
                4.79459362
            ]
        ],
        "epsilon_ionic_avg": 5.245097703333335,
        "epsilon_ionic_eig": [
            5.7028741100000335,
            4.794593618883034,
            5.237825381116939
        ],
        "epsilon_electronic": [
            [
                2.95257026,
                0.0,
                0.0
            ],
            [
                0.0,
                2.88231295,
                0.0
            ],
            [
                0.0,
                0.0,
                2.97870517
            ]
        ],
        "epsilon_electronic_avg": 2.9378627933333337,
        "epsilon_electronic_eig": [
            2.95257026,
            2.88231295,
            2.97870517
        ]
    },
    "phonon": {
        "lowest_freq": -0.10390492583907451,
        "frequency": [
            -0.10390492583907451,
            -0.06086166365371105,
            -0.031161913737868308,
            1.2244763697226522,
            1.7556609576834084,
            1.8106597819600403,
            2.1467523026444795,
            2.1751389779784813,
            2.506890010593257,
            2.5163169716067313,
            2.602298723517068,
            2.634979088291917,
            2.6667477911768005,
            2.8690385629276407,
            2.8968216060137046,
            3.014256549158974,
            3.2586891131723177,
            3.330303234573003,
            3.371012332286063,
            3.700779091036353,
            4.324915569193238,
            4.864053775322633,
            5.293618196347562,
            5.9044759754500795,
            8.831012248278386,
            8.935126988818107,
            9.567563223746756,
            9.686730183267098,
            9.970833318783493,
            10.120367613664117,
            10.313544975863124,
            10.406388308130825,
            10.749061601641463,
            11.10469571161453,
            11.670070373275866,
            11.68802557924725,
            14.808866581263848,
            15.113126640218262,
            15.663817110933163,
            15.875053801838337,
            23.688313589282384,
            23.794712078714,
            23.976331788378292,
            24.328272530127077,
            24.47703582945346,
            24.51096498096585,
            24.60623372429005,
            26.027927083118264
        ]
    },
    "born_effective_charge": {
        "avg_abs_trace": 1.61226125,
        "tensors": [
            [
                [
                    1.14051,
                    0.0,
                    0.0
                ],
                [
                    0.0,
                    1.2063,
                    0.01773
                ],
                [
                    0.0,
                    -0.02579,
                    1.43556
                ]
            ],
            [
                [
                    1.14051,
                    -0.0,
                    0.0
                ],
                [
                    0.0,
                    1.20629,
                    -0.01772
                ],
                [
                    0.0,
                    0.02579,
                    1.43556
                ]
            ],
            [
                [
                    1.36505,
                    0.0,
                    -0.0
                ],
                [
                    0.0,
                    1.33552,
                    0.09363
                ],
                [
                    0.0,
                    -0.02953,
                    1.22535
                ]
            ],
            [
                [
                    1.36505,
                    -0.0,
                    -0.0
                ],
                [
                    0.0,
                    1.3355,
                    -0.09361
                ],
                [
                    0.0,
                    0.02953,
                    1.22535
                ]
            ],
            [
                [
                    1.24335,
                    -0.0,
                    0.0
                ],
                [
                    0.0,
                    0.69878,
                    -0.21254
                ],
                [
                    0.0,
                    -0.37429,
                    1.18826
                ]
            ],
            [
                [
                    1.24335,
                    0.0,
                    0.0
                ],
                [
                    0.0,
                    0.69878,
                    0.21253
                ],
                [
                    0.0,
                    0.37429,
                    1.18826
                ]
            ],
            [
                [
                    2.88533,
                    0.0,
                    0.0
                ],
                [
                    0.0,
                    2.69043,
                    0.1
                ],
                [
                    0.0,
                    0.25775,
                    2.93269
                ]
            ],
            [
                [
                    2.88533,
                    -0.0,
                    0.0
                ],
                [
                    0.0,
                    2.69044,
                    -0.1
                ],
                [
                    0.0,
                    -0.25775,
                    2.93269
                ]
            ],
            [
                [
                    -2.38757,
                    -0.46664,
                    0.8313
                ],
                [
                    -0.40113,
                    -1.03126,
                    0.18923
                ],
                [
                    0.82633,
                    0.2585,
                    -1.52761
                ]
            ],
            [
                [
                    -2.38762,
                    -0.46665,
                    -0.83128
                ],
                [
                    -0.40115,
                    -1.03125,
                    -0.18923
                ],
                [
                    -0.82633,
                    -0.2585,
                    -1.52761
                ]
            ],
            [
                [
                    -0.90078,
                    1e-05,
                    -1e-05
                ],
                [
                    0.0,
                    -1.1958,
                    -0.60077
                ],
                [
                    0.0,
                    -0.49164,
                    -2.60187
                ]
            ],
            [
                [
                    -0.90078,
                    -1e-05,
                    -1e-05
                ],
                [
                    0.0,
                    -1.19583,
                    0.60077
                ],
                [
                    0.0,
                    0.49164,
                    -2.60187
                ]
            ],
            [
                [
                    -2.38762,
                    0.46665,
                    -0.83128
                ],
                [
                    0.40113,
                    -1.03126,
                    0.18923
                ],
                [
                    -0.82633,
                    0.2585,
                    -1.52761
                ]
            ],
            [
                [
                    -2.38757,
                    0.46664,
                    0.8313
                ],
                [
                    0.40115,
                    -1.03125,
                    -0.18923
                ],
                [
                    0.82633,
                    -0.2585,
                    -1.52761
                ]
            ],
            [
                [
                    -0.95828,
                    -1e-05,
                    -0.0
                ],
                [
                    0.0,
                    -2.6727,
                    -0.26319
                ],
                [
                    0.0,
                    -0.30122,
                    -1.12479
                ]
            ],
            [
                [
                    -0.95828,
                    1e-05,
                    -0.0
                ],
                [
                    0.0,
                    -2.67269,
                    0.26318
                ],
                [
                    0.0,
                    0.30122,
                    -1.12479
                ]
            ]
        ]
    },
    "band_gap": 4.0786,
    "is_direct": false,
    "formula": "Rb2LiVO4"
}