{
    "mp_id": "mp-13541",
    "nelements": 4,
    "nsites": 11,
    "elements": [
        "B",
        "Mg",
        "O",
        "Sr"
    ],
    "structure": {
        "@module": "pymatgen.core.structure",
        "@class": "Structure",
        "charge": null,
        "lattice": {
            "matrix": [
                [
                    4.512968,
                    -2.57102393,
                    0.00077497
                ],
                [
                    4.512968,
                    2.57102393,
                    0.00077497
                ],
                [
                    -2.92766149,
                    0.0,
                    5.31519008
                ]
            ],
            "a": 5.193943089622291,
            "b": 5.193943089622291,
            "c": 6.068150244230892,
            "alpha": 114.77635022294103,
            "beta": 114.77635022294103,
            "gamma": 59.34006184494381,
            "volume": 123.35542244031014
        },
        "sites": [
            {
                "species": [
                    {
                        "element": "Sr",
                        "occu": 1
                    }
                ],
                "abc": [
                    0.29048583,
                    0.29048583,
                    0.81607753
                ],
                "xyz": [
                    0.23270775305155977,
                    0.0,
                    4.3380574275742525
                ],
                "label": "Sr",
                "properties": {}
            },
            {
                "species": [
                    {
                        "element": "Sr",
                        "occu": 1
                    }
                ],
                "abc": [
                    0.70951417,
                    0.70951417,
                    0.18392247
                ],
                "xyz": [
                    5.86556675694844,
                    0.0,
                    0.9786825924257474
                ],
                "label": "Sr",
                "properties": {}
            },
            {
                "species": [
                    {
                        "element": "Mg",
                        "occu": 1
                    }
                ],
                "abc": [
                    0.5,
                    0.5,
                    0.5
                ],
                "xyz": [
                    3.0491372549999998,
                    0.0,
                    2.65837001
                ],
                "label": "Mg",
                "properties": {}
            },
            {
                "species": [
                    {
                        "element": "B",
                        "occu": 1
                    }
                ],
                "abc": [
                    0.06244918,
                    0.06244918,
                    0.26187173
                ],
                "xyz": [
                    -0.20300947730819785,
                    0.0,
                    1.3919948140104876
                ],
                "label": "B",
                "properties": {}
            },
            {
                "species": [
                    {
                        "element": "B",
                        "occu": 1
                    }
                ],
                "abc": [
                    0.93755082,
                    0.93755082,
                    0.73812827
                ],
                "xyz": [
                    6.301283987308198,
                    0.0,
                    3.9247452059895127
                ],
                "label": "B",
                "properties": {}
            },
            {
                "species": [
                    {
                        "element": "O",
                        "occu": 1
                    }
                ],
                "abc": [
                    0.23299356,
                    0.23299356,
                    0.33762115
                ],
                "xyz": [
                    1.1145445219076464,
                    0.0,
                    1.7948817133165782
                ],
                "label": "O",
                "properties": {}
            },
            {
                "species": [
                    {
                        "element": "O",
                        "occu": 1
                    }
                ],
                "abc": [
                    0.25725203,
                    0.79260148,
                    0.77077225
                ],
                "xyz": [
                    2.481395061432026,
                    1.3763962468623383,
                    4.097614622113925
                ],
                "label": "O",
                "properties": {}
            },
            {
                "species": [
                    {
                        "element": "O",
                        "occu": 1
                    }
                ],
                "abc": [
                    0.20739852,
                    0.74274797,
                    0.22922775
                ],
                "xyz": [
                    3.616879448567972,
                    1.3763962468623385,
                    1.2191253978860752
                ],
                "label": "O",
                "properties": {}
            },
            {
                "species": [
                    {
                        "element": "O",
                        "occu": 1
                    }
                ],
                "abc": [
                    0.74274797,
                    0.20739852,
                    0.22922775
                ],
                "xyz": [
                    3.616879448567972,
                    -1.3763962468623385,
                    1.2191253978860752
                ],
                "label": "O",
                "properties": {}
            },
            {
                "species": [
                    {
                        "element": "O",
                        "occu": 1
                    }
                ],
                "abc": [
                    0.79260148,
                    0.25725203,
                    0.77077225
                ],
                "xyz": [
                    2.481395061432026,
                    -1.3763962468623383,
                    4.097614622113925
                ],
                "label": "O",
                "properties": {}
            },
            {
                "species": [
                    {
                        "element": "O",
                        "occu": 1
                    }
                ],
                "abc": [
                    0.76700644,
                    0.76700644,
                    0.66237885
                ],
                "xyz": [
                    4.983729988092352,
                    0.0,
                    3.5218583066834213
                ],
                "label": "O",
                "properties": {}
            }
        ]
    },
    "spacegroup": {
        "source": "spglib",
        "symbol": "C2/m",
        "number": 12,
        "point_group": "2/m",
        "crystal_system": "monoclinic",
        "hall": "-C 2y"
    },
    "dielectric": {
        "epsilon_ionic": [
            [
                6.88649441,
                1e-08,
                -0.12069084
            ],
            [
                1e-08,
                8.13246631,
                -5e-08
            ],
            [
                -0.12069084,
                -5e-08,
                7.22580746
            ]
        ],
        "epsilon_ionic_avg": 7.414922726666664,
        "epsilon_ionic_eig": [
            6.847945230623338,
            7.2643566393766585,
            8.13246631
        ],
        "epsilon_electronic": [
            [
                3.34654947,
                0.0,
                0.10114282
            ],
            [
                0.0,
                3.32012366,
                0.0
            ],
            [
                0.10114178,
                0.0,
                3.052367
            ]
        ],
        "epsilon_electronic_avg": 3.2396800433333333,
        "epsilon_electronic_eig": [
            3.37796760803919,
            3.0209488619608096,
            3.32012366
        ]
    },
    "phonon": {
        "lowest_freq": -0.04209702934998459,
        "frequency": [
            -0.04209702934998459,
            -0.014078075324811002,
            -0.010100043883979708,
            3.134919960665477,
            3.595896364691792,
            4.35050080926412,
            4.7551416368128105,
            4.815802654082951,
            4.921674514309099,
            6.065045280075478,
            6.186630205110889,
            6.3370598861817165,
            6.848183367391926,
            7.8436843218638534,
            7.994989175610214,
            8.169274650948985,
            8.899036337794817,
            9.141958728350392,
            9.8379268962955,
            11.170380860129024,
            11.322565489563615,
            16.646184046943347,
            16.716824479429086,
            17.308690859949664,
            17.8613238694347,
            21.145478707549113,
            22.574386969324305,
            27.60145000550216,
            27.77126850849187,
            35.49300721124072,
            36.515725150278584,
            37.12460041543418,
            37.58522189237149
        ]
    },
    "born_effective_charge": {
        "avg_abs_trace": 2.0106103030303033,
        "tensors": [
            [
                [
                    2.59131,
                    0.0,
                    0.04081
                ],
                [
                    -0.0,
                    2.61251,
                    3e-05
                ],
                [
                    -0.00914,
                    0.0,
                    2.41347
                ]
            ],
            [
                [
                    2.59124,
                    0.0,
                    0.04073
                ],
                [
                    0.0,
                    2.61251,
                    -3e-05
                ],
                [
                    -0.00896,
                    0.0,
                    2.41346
                ]
            ],
            [
                [
                    2.35117,
                    0.0,
                    -0.05891
                ],
                [
                    0.0,
                    2.19667,
                    0.0
                ],
                [
                    0.04935,
                    0.0,
                    2.08714
                ]
            ],
            [
                [
                    2.38152,
                    0.0,
                    0.52446
                ],
                [
                    -5e-05,
                    2.48051,
                    -3e-05
                ],
                [
                    0.61053,
                    0.0,
                    0.79075
                ]
            ],
            [
                [
                    2.38149,
                    0.0,
                    0.52445
                ],
                [
                    5e-05,
                    2.48051,
                    3e-05
                ],
                [
                    0.61063,
                    0.0,
                    0.79081
                ]
            ],
            [
                [
                    -2.32762,
                    0.0,
                    -0.38857
                ],
                [
                    -0.00015,
                    -1.62881,
                    -8e-05
                ],
                [
                    -0.41758,
                    0.0,
                    -1.47178
                ]
            ],
            [
                [
                    -1.91037,
                    0.28737,
                    -0.07368
                ],
                [
                    0.25898,
                    -2.28134,
                    0.1504
                ],
                [
                    -0.10431,
                    0.1264,
                    -1.388
                ]
            ],
            [
                [
                    -1.91044,
                    -0.28741,
                    -0.07363
                ],
                [
                    -0.25898,
                    -2.28134,
                    -0.1504
                ],
                [
                    -0.10411,
                    -0.1263,
                    -1.38797
                ]
            ],
            [
                [
                    -1.91044,
                    0.28741,
                    -0.07363
                ],
                [
                    0.25884,
                    -2.2812,
                    0.15045
                ],
                [
                    -0.10411,
                    0.1263,
                    -1.38797
                ]
            ],
            [
                [
                    -1.91037,
                    -0.28737,
                    -0.07368
                ],
                [
                    -0.25884,
                    -2.2812,
                    -0.15045
                ],
                [
                    -0.10431,
                    -0.1264,
                    -1.388
                ]
            ],
            [
                [
                    -2.3275,
                    0.0,
                    -0.38837
                ],
                [
                    0.00015,
                    -1.62881,
                    8e-05
                ],
                [
                    -0.41799,
                    0.0,
                    -1.47191
                ]
            ]
        ]
    },
    "band_gap": 4.667,
    "is_direct": true,
    "formula": "Sr2Mg(BO3)2"
}