{
    "mp_id": "mp-1210431",
    "nelements": 4,
    "nsites": 16,
    "elements": [
        "Ge",
        "Mg",
        "Na",
        "O"
    ],
    "structure": {
        "@module": "pymatgen.core.structure",
        "@class": "Structure",
        "charge": null,
        "lattice": {
            "matrix": [
                [
                    5.33903328,
                    0.0,
                    0.00018808
                ],
                [
                    0.0,
                    5.65726765,
                    0.0
                ],
                [
                    -5.34603427,
                    0.0,
                    7.08968205
                ]
            ],
            "a": 5.33903328331278,
            "b": 5.65726765,
            "c": 8.879396037237365,
            "alpha": 90.0,
            "beta": 127.01640810658898,
            "gamma": 90.0,
            "volume": 214.14485723518777
        },
        "sites": [
            {
                "species": [
                    {
                        "element": "Na",
                        "occu": 1
                    }
                ],
                "abc": [
                    0.63183022,
                    0.3294354,
                    0.19391911
                ],
                "xyz": [
                    2.336664364221822,
                    1.8637042311848098,
                    1.3749436679467533
                ],
                "label": "Na",
                "properties": {}
            },
            {
                "species": [
                    {
                        "element": "Na",
                        "occu": 1
                    }
                ],
                "abc": [
                    0.63183022,
                    0.6705646,
                    0.69391911
                ],
                "xyz": [
                    -0.3363527707781775,
                    3.7935634188151894,
                    4.919784692946752
                ],
                "label": "Na",
                "properties": {}
            },
            {
                "species": [
                    {
                        "element": "Na",
                        "occu": 1
                    }
                ],
                "abc": [
                    0.37476197,
                    0.17765982,
                    0.4384277
                ],
                "xyz": [
                    -0.3429828792089169,
                    1.0050691523908228,
                    3.1083834801441026
                ],
                "label": "Na",
                "properties": {}
            },
            {
                "species": [
                    {
                        "element": "Na",
                        "occu": 1
                    }
                ],
                "abc": [
                    0.37476197,
                    0.82234018,
                    0.9384277
                ],
                "xyz": [
                    -3.016000014208917,
                    4.652198497609176,
                    6.653224505144102
                ],
                "label": "Na",
                "properties": {}
            },
            {
                "species": [
                    {
                        "element": "Mg",
                        "occu": 1
                    }
                ],
                "abc": [
                    0.87078546,
                    0.81775263,
                    0.44415519
                ],
                "xyz": [
                    2.2746836837417477,
                    4.626245499401419,
                    3.149082855286656
                ],
                "label": "Mg",
                "properties": {}
            },
            {
                "species": [
                    {
                        "element": "Mg",
                        "occu": 1
                    }
                ],
                "abc": [
                    0.87078546,
                    0.18224737,
                    0.94415519
                ],
                "xyz": [
                    -0.39833345125825215,
                    1.0310221505985804,
                    6.693923880286657
                ],
                "label": "Mg",
                "properties": {}
            },
            {
                "species": [
                    {
                        "element": "Ge",
                        "occu": 1
                    }
                ],
                "abc": [
                    0.11360631,
                    0.6821276,
                    0.19112556
                ],
                "xyz": [
                    -0.4152159237249443,
                    3.8589784046521394,
                    1.355040819102983
                ],
                "label": "Ge",
                "properties": {}
            },
            {
                "species": [
                    {
                        "element": "Ge",
                        "occu": 1
                    }
                ],
                "abc": [
                    0.11360631,
                    0.3178724,
                    0.69112556
                ],
                "xyz": [
                    -3.0882330587249442,
                    1.7982892453478598,
                    4.899881844102984
                ],
                "label": "Ge",
                "properties": {}
            },
            {
                "species": [
                    {
                        "element": "O",
                        "occu": 1
                    }
                ],
                "abc": [
                    0.46446183,
                    0.79756488,
                    0.40045975
                ],
                "xyz": [
                    0.3389056204040699,
                    4.512037994400132,
                    2.839219657303474
                ],
                "label": "O",
                "properties": {}
            },
            {
                "species": [
                    {
                        "element": "O",
                        "occu": 1
                    }
                ],
                "abc": [
                    0.46446183,
                    0.20243512,
                    0.90045975
                ],
                "xyz": [
                    -2.3341115145959295,
                    1.145229655599868,
                    6.384060682303475
                ],
                "label": "O",
                "properties": {}
            },
            {
                "species": [
                    {
                        "element": "O",
                        "occu": 1
                    }
                ],
                "abc": [
                    0.17204347,
                    0.37679676,
                    0.16542414
                ],
                "xyz": [
                    0.03418269041140387,
                    2.131640120972814,
                    1.1728369139305248
                ],
                "label": "O",
                "properties": {}
            },
            {
                "species": [
                    {
                        "element": "O",
                        "occu": 1
                    }
                ],
                "abc": [
                    0.17204347,
                    0.62320324,
                    0.66542414
                ],
                "xyz": [
                    -2.6388344445885963,
                    3.525627529027186,
                    4.7176779389305254
                ],
                "label": "O",
                "properties": {}
            },
            {
                "species": [
                    {
                        "element": "O",
                        "occu": 1
                    }
                ],
                "abc": [
                    0.8063183,
                    0.70444525,
                    0.2164591
                ],
                "xyz": [
                    3.147762471319667,
                    3.985235324021162,
                    1.534777848175019
                ],
                "label": "O",
                "properties": {}
            },
            {
                "species": [
                    {
                        "element": "O",
                        "occu": 1
                    }
                ],
                "abc": [
                    0.8063183,
                    0.29555475,
                    0.7164591
                ],
                "xyz": [
                    0.4747453363196672,
                    1.6720323259788372,
                    5.079618873175019
                ],
                "label": "O",
                "properties": {}
            },
            {
                "species": [
                    {
                        "element": "O",
                        "occu": 1
                    }
                ],
                "abc": [
                    0.99560644,
                    0.84709975,
                    0.98515645
                ],
                "xyz": [
                    0.048895773930781594,
                    4.792270011998087,
                    6.984633253665958
                ],
                "label": "O",
                "properties": {}
            },
            {
                "species": [
                    {
                        "element": "O",
                        "occu": 1
                    }
                ],
                "abc": [
                    0.99560644,
                    0.15290025,
                    0.48515645
                ],
                "xyz": [
                    2.7219129089307814,
                    0.8649976380019124,
                    3.4397922286659584
                ],
                "label": "O",
                "properties": {}
            }
        ]
    },
    "spacegroup": {
        "source": "spglib",
        "symbol": "Pc",
        "number": 7,
        "point_group": "m",
        "crystal_system": "monoclinic",
        "hall": "P -2yc"
    },
    "dielectric": {
        "epsilon_ionic": [
            [
                3.19993672,
                -3e-07,
                -0.00757728
            ],
            [
                -3e-07,
                2.69944881,
                -4.1e-07
            ],
            [
                -0.00757728,
                -4.1e-07,
                2.33217198
            ]
        ],
        "epsilon_ionic_avg": 2.743852503333333,
        "epsilon_ionic_eig": [
            3.2000028794008593,
            2.3321058205988536,
            2.699448810000288
        ],
        "epsilon_electronic": [
            [
                2.74525372,
                0.0,
                0.00129526
            ],
            [
                0.0,
                2.7532872,
                0.0
            ],
            [
                0.00129443,
                0.0,
                2.69341701
            ]
        ],
        "epsilon_electronic_avg": 2.730652643333334,
        "epsilon_electronic_eig": [
            2.745286044168527,
            2.693384685831473,
            2.7532872
        ]
    },
    "phonon": {
        "lowest_freq": -0.17428598249920205,
        "frequency": [
            -0.17428598249920205,
            -0.1674237235673917,
            -0.03533203546073347,
            3.6087669820130044,
            3.6673699471092895,
            4.004166610576972,
            4.486131603729104,
            4.719966161921863,
            4.895123552291687,
            5.483244588198766,
            5.606812547830896,
            5.8859591926947425,
            6.100864688591194,
            6.156992119538863,
            6.362428487165532,
            6.503761912657185,
            6.542046165956253,
            6.925658706986744,
            7.2474304504986184,
            7.26080139025505,
            7.378396051937089,
            8.040550228970256,
            8.527179338047185,
            8.91399287961671,
            9.230797512423552,
            9.313657509230694,
            9.53344192423283,
            9.669130595634472,
            10.124989115175108,
            10.35902935261674,
            11.09862864926618,
            11.251359251143606,
            11.786819915017361,
            12.587835372727897,
            13.431613295622341,
            13.99967537868408,
            14.438054941530487,
            14.96852174744521,
            15.163958810049584,
            15.772325348502978,
            21.10135397411738,
            21.368622326691952,
            21.437106468205627,
            21.650723338740377,
            21.800246196415156,
            22.462531310515125,
            22.621511320645396,
            23.067175228176463
        ]
    },
    "born_effective_charge": {
        "avg_abs_trace": 1.6761764583333334,
        "tensors": [
            [
                [
                    1.05289,
                    -0.05191,
                    -0.00238
                ],
                [
                    0.00195,
                    0.96968,
                    -0.00053
                ],
                [
                    0.01405,
                    -0.00344,
                    1.08387
                ]
            ],
            [
                [
                    1.05289,
                    0.05191,
                    -0.00238
                ],
                [
                    -0.00195,
                    0.96968,
                    0.00053
                ],
                [
                    0.01405,
                    0.00344,
                    1.08387
                ]
            ],
            [
                [
                    1.01719,
                    -0.02067,
                    -0.05146
                ],
                [
                    0.01271,
                    1.02516,
                    -0.03856
                ],
                [
                    0.0275,
                    0.04212,
                    0.95771
                ]
            ],
            [
                [
                    1.01719,
                    0.02067,
                    -0.05146
                ],
                [
                    -0.01271,
                    1.02516,
                    0.03856
                ],
                [
                    0.0275,
                    -0.04212,
                    0.95771
                ]
            ],
            [
                [
                    1.87536,
                    0.09516,
                    0.20877
                ],
                [
                    -0.03639,
                    1.96205,
                    -0.15864
                ],
                [
                    -0.1904,
                    0.19717,
                    1.75256
                ]
            ],
            [
                [
                    1.87536,
                    -0.09516,
                    0.20877
                ],
                [
                    0.03639,
                    1.96205,
                    0.15864
                ],
                [
                    -0.1904,
                    -0.19717,
                    1.75256
                ]
            ],
            [
                [
                    2.84705,
                    -0.02883,
                    -0.09149
                ],
                [
                    0.04699,
                    2.76322,
                    -0.08552
                ],
                [
                    0.09273,
                    0.11312,
                    2.80738
                ]
            ],
            [
                [
                    2.84705,
                    0.02883,
                    -0.09149
                ],
                [
                    -0.047,
                    2.76322,
                    0.08552
                ],
                [
                    0.09273,
                    -0.11312,
                    2.80738
                ]
            ],
            [
                [
                    -1.81491,
                    0.144,
                    0.40763
                ],
                [
                    0.13777,
                    -1.37381,
                    -0.1709
                ],
                [
                    0.41814,
                    -0.2889,
                    -1.85479
                ]
            ],
            [
                [
                    -1.81491,
                    -0.144,
                    0.40763
                ],
                [
                    -0.13776,
                    -1.3738,
                    0.17089
                ],
                [
                    0.41814,
                    0.2889,
                    -1.85479
                ]
            ],
            [
                [
                    -1.3641,
                    -0.14388,
                    -0.00102
                ],
                [
                    -0.15003,
                    -2.19417,
                    -0.2898
                ],
                [
                    0.02437,
                    -0.27547,
                    -1.45734
                ]
            ],
            [
                [
                    -1.3641,
                    0.14388,
                    -0.00102
                ],
                [
                    0.15002,
                    -2.19417,
                    0.2898
                ],
                [
                    0.02437,
                    0.27547,
                    -1.45734
                ]
            ],
            [
                [
                    -2.24931,
                    -0.11642,
                    -0.2841
                ],
                [
                    -0.08903,
                    -1.27794,
                    -0.02766
                ],
                [
                    -0.24566,
                    -0.1064,
                    -1.45221
                ]
            ],
            [
                [
                    -2.24931,
                    0.11642,
                    -0.2841
                ],
                [
                    0.08903,
                    -1.27794,
                    0.02767
                ],
                [
                    -0.24566,
                    0.1064,
                    -1.45221
                ]
            ],
            [
                [
                    -1.36416,
                    0.08486,
                    -0.18595
                ],
                [
                    0.04448,
                    -1.8742,
                    0.40728
                ],
                [
                    -0.14074,
                    0.48915,
                    -1.83718
                ]
            ],
            [
                [
                    -1.36416,
                    -0.08486,
                    -0.18595
                ],
                [
                    -0.04448,
                    -1.8742,
                    -0.40728
                ],
                [
                    -0.14074,
                    -0.48915,
                    -1.83718
                ]
            ]
        ]
    },
    "band_gap": 3.2449999999999997,
    "is_direct": false,
    "formula": "Na2MgGeO4"
}