{
    "mp_id": "mp-1191240",
    "nelements": 4,
    "nsites": 24,
    "elements": [
        "O",
        "Si",
        "Sr",
        "Zn"
    ],
    "structure": {
        "@module": "pymatgen.core.structure",
        "@class": "Structure",
        "charge": null,
        "lattice": {
            "matrix": [
                [
                    7.94925333,
                    0.0,
                    0.0
                ],
                [
                    0.0,
                    7.94925333,
                    0.0
                ],
                [
                    0.0,
                    0.0,
                    5.15868269
                ]
            ],
            "a": 7.94925333,
            "b": 7.94925333,
            "c": 5.15868269,
            "alpha": 90.0,
            "beta": 90.0,
            "gamma": 90.0,
            "volume": 325.98040143646773
        },
        "sites": [
            {
                "species": [
                    {
                        "element": "Sr",
                        "occu": 1
                    }
                ],
                "abc": [
                    0.83483802,
                    0.33483802,
                    0.50743437
                ],
                "xyz": [
                    6.636338910495606,
                    2.661712245495607,
                    2.6176929008300553
                ],
                "label": "Sr",
                "properties": {}
            },
            {
                "species": [
                    {
                        "element": "Sr",
                        "occu": 1
                    }
                ],
                "abc": [
                    0.33483802,
                    0.16516198,
                    0.49256563
                ],
                "xyz": [
                    2.661712245495607,
                    1.3129144195043936,
                    2.5409897891699447
                ],
                "label": "Sr",
                "properties": {}
            },
            {
                "species": [
                    {
                        "element": "Sr",
                        "occu": 1
                    }
                ],
                "abc": [
                    0.16516198,
                    0.66516198,
                    0.50743437
                ],
                "xyz": [
                    1.3129144195043936,
                    5.287541084504394,
                    2.6176929008300553
                ],
                "label": "Sr",
                "properties": {}
            },
            {
                "species": [
                    {
                        "element": "Sr",
                        "occu": 1
                    }
                ],
                "abc": [
                    0.66516198,
                    0.83483802,
                    0.49256563
                ],
                "xyz": [
                    5.287541084504394,
                    6.636338910495606,
                    2.5409897891699447
                ],
                "label": "Sr",
                "properties": {}
            },
            {
                "species": [
                    {
                        "element": "Zn",
                        "occu": 1
                    }
                ],
                "abc": [
                    0.5,
                    0.5,
                    0.0
                ],
                "xyz": [
                    3.974626665,
                    3.974626665,
                    0.0
                ],
                "label": "Zn",
                "properties": {}
            },
            {
                "species": [
                    {
                        "element": "Zn",
                        "occu": 1
                    }
                ],
                "abc": [
                    0.0,
                    0.0,
                    0.0
                ],
                "xyz": [
                    0.0,
                    0.0,
                    0.0
                ],
                "label": "Zn",
                "properties": {}
            },
            {
                "species": [
                    {
                        "element": "Si",
                        "occu": 1
                    }
                ],
                "abc": [
                    0.63993831,
                    0.13993831,
                    0.94972055
                ],
                "xyz": [
                    5.087031741762073,
                    1.1124050767620723,
                    4.89930696162228
                ],
                "label": "Si",
                "properties": {}
            },
            {
                "species": [
                    {
                        "element": "Si",
                        "occu": 1
                    }
                ],
                "abc": [
                    0.13993831,
                    0.36006169,
                    0.05027945
                ],
                "xyz": [
                    1.1124050767620723,
                    2.8622215882379276,
                    0.2593757283777205
                ],
                "label": "Si",
                "properties": {}
            },
            {
                "species": [
                    {
                        "element": "Si",
                        "occu": 1
                    }
                ],
                "abc": [
                    0.36006169,
                    0.86006169,
                    0.94972055
                ],
                "xyz": [
                    2.8622215882379276,
                    6.836848253237928,
                    4.89930696162228
                ],
                "label": "Si",
                "properties": {}
            },
            {
                "species": [
                    {
                        "element": "Si",
                        "occu": 1
                    }
                ],
                "abc": [
                    0.86006169,
                    0.63993831,
                    0.05027945
                ],
                "xyz": [
                    6.836848253237928,
                    5.087031741762073,
                    0.2593757283777205
                ],
                "label": "Si",
                "properties": {}
            },
            {
                "species": [
                    {
                        "element": "O",
                        "occu": 1
                    }
                ],
                "abc": [
                    0.0,
                    0.5,
                    0.16210174
                ],
                "xyz": [
                    0.0,
                    3.974626665,
                    0.8362314401568806
                ],
                "label": "O",
                "properties": {}
            },
            {
                "species": [
                    {
                        "element": "O",
                        "occu": 1
                    }
                ],
                "abc": [
                    0.5,
                    0.0,
                    0.83789826
                ],
                "xyz": [
                    3.974626665,
                    0.0,
                    4.32245124984312
                ],
                "label": "O",
                "properties": {}
            },
            {
                "species": [
                    {
                        "element": "O",
                        "occu": 1
                    }
                ],
                "abc": [
                    0.639297,
                    0.139297,
                    0.26223793
                ],
                "xyz": [
                    5.08193380610901,
                    1.10730714110901,
                    1.3528022701524318
                ],
                "label": "O",
                "properties": {}
            },
            {
                "species": [
                    {
                        "element": "O",
                        "occu": 1
                    }
                ],
                "abc": [
                    0.139297,
                    0.360703,
                    0.73776207
                ],
                "xyz": [
                    1.10730714110901,
                    2.86731952389099,
                    3.8058804198475684
                ],
                "label": "O",
                "properties": {}
            },
            {
                "species": [
                    {
                        "element": "O",
                        "occu": 1
                    }
                ],
                "abc": [
                    0.360703,
                    0.860703,
                    0.26223793
                ],
                "xyz": [
                    2.86731952389099,
                    6.84194618889099,
                    1.3528022701524318
                ],
                "label": "O",
                "properties": {}
            },
            {
                "species": [
                    {
                        "element": "O",
                        "occu": 1
                    }
                ],
                "abc": [
                    0.860703,
                    0.639297,
                    0.73776207
                ],
                "xyz": [
                    6.84194618889099,
                    5.08193380610901,
                    3.8058804198475684
                ],
                "label": "O",
                "properties": {}
            },
            {
                "species": [
                    {
                        "element": "O",
                        "occu": 1
                    }
                ],
                "abc": [
                    0.58045944,
                    0.31323975,
                    0.80280406
                ],
                "xyz": [
                    4.614219136349936,
                    2.4900221257758677,
                    4.141411407783721
                ],
                "label": "O",
                "properties": {}
            },
            {
                "species": [
                    {
                        "element": "O",
                        "occu": 1
                    }
                ],
                "abc": [
                    0.08045944,
                    0.18676025,
                    0.19719594
                ],
                "xyz": [
                    0.6395924713499351,
                    1.4846045392241325,
                    1.0172712822162786
                ],
                "label": "O",
                "properties": {}
            },
            {
                "species": [
                    {
                        "element": "O",
                        "occu": 1
                    }
                ],
                "abc": [
                    0.41954056,
                    0.68676025,
                    0.80280406
                ],
                "xyz": [
                    3.335034193650065,
                    5.459231204224133,
                    4.141411407783721
                ],
                "label": "O",
                "properties": {}
            },
            {
                "species": [
                    {
                        "element": "O",
                        "occu": 1
                    }
                ],
                "abc": [
                    0.91954056,
                    0.81323975,
                    0.19719594
                ],
                "xyz": [
                    7.309660858650065,
                    6.464648790775868,
                    1.0172712822162786
                ],
                "label": "O",
                "properties": {}
            },
            {
                "species": [
                    {
                        "element": "O",
                        "occu": 1
                    }
                ],
                "abc": [
                    0.68676025,
                    0.58045944,
                    0.19719594
                ],
                "xyz": [
                    5.459231204224133,
                    4.614219136349936,
                    1.0172712822162786
                ],
                "label": "O",
                "properties": {}
            },
            {
                "species": [
                    {
                        "element": "O",
                        "occu": 1
                    }
                ],
                "abc": [
                    0.18676025,
                    0.91954056,
                    0.80280406
                ],
                "xyz": [
                    1.4846045392241325,
                    7.309660858650065,
                    4.141411407783721
                ],
                "label": "O",
                "properties": {}
            },
            {
                "species": [
                    {
                        "element": "O",
                        "occu": 1
                    }
                ],
                "abc": [
                    0.31323975,
                    0.41954056,
                    0.19719594
                ],
                "xyz": [
                    2.4900221257758677,
                    3.335034193650065,
                    1.0172712822162786
                ],
                "label": "O",
                "properties": {}
            },
            {
                "species": [
                    {
                        "element": "O",
                        "occu": 1
                    }
                ],
                "abc": [
                    0.81323975,
                    0.08045944,
                    0.80280406
                ],
                "xyz": [
                    6.464648790775868,
                    0.6395924713499351,
                    4.141411407783721
                ],
                "label": "O",
                "properties": {}
            }
        ]
    },
    "spacegroup": {
        "source": "spglib",
        "symbol": "P-42_1m",
        "number": 113,
        "point_group": "-42m",
        "crystal_system": "tetragonal",
        "hall": "P -4 2ab"
    },
    "dielectric": {
        "epsilon_ionic": [
            [
                6.04116078,
                -0.0,
                0.0
            ],
            [
                -0.0,
                6.04116057,
                0.0
            ],
            [
                0.0,
                0.0,
                4.23813144
            ]
        ],
        "epsilon_ionic_avg": 5.440150930000001,
        "epsilon_ionic_eig": [
            6.04116078,
            6.04116057,
            4.23813144
        ],
        "epsilon_electronic": [
            [
                3.01044669,
                -0.0,
                0.0
            ],
            [
                0.0,
                3.01044669,
                0.0
            ],
            [
                0.0,
                0.0,
                2.99791551
            ]
        ],
        "epsilon_electronic_avg": 3.0062696300000002,
        "epsilon_electronic_eig": [
            3.01044669,
            3.01044669,
            2.99791551
        ]
    },
    "phonon": {
        "lowest_freq": -0.10410260407912274,
        "frequency": [
            -0.10410260407912274,
            -0.10410260407912274,
            -0.05765767088202156,
            2.1932941770152814,
            2.519350941177442,
            2.519350941177442,
            2.9621009555271103,
            3.4598902778750507,
            3.690727772570195,
            3.690727772570195,
            3.7326353209051217,
            3.7326353209051217,
            4.065173012477797,
            4.35965959584754,
            4.35965959584754,
            4.517492159928117,
            4.526024912214595,
            4.886289021358909,
            5.134187617209449,
            5.439170348090378,
            5.460778067766098,
            5.460778067766098,
            6.039971982298889,
            6.088157207892037,
            6.088157207892037,
            6.281627034909927,
            6.281627034909927,
            6.7216237239165535,
            7.474146279193113,
            7.510417196017733,
            7.560519886190484,
            7.560519886190484,
            7.864890718133677,
            7.971160156058714,
            8.662726384791918,
            9.210868561831385,
            9.210868561831385,
            9.710396320411906,
            9.710396320411906,
            10.27242066135881,
            12.262802078816975,
            12.87740288190627,
            12.885315829289969,
            12.885315829289969,
            12.995827035897522,
            13.618581671641316,
            13.684154208670774,
            13.777903506292759,
            13.777903506292759,
            13.997104133220674,
            15.225920890174478,
            15.225920890174478,
            16.59086544602215,
            16.59086544602215,
            17.08823753193065,
            17.181304306563007,
            18.897807758065046,
            19.353451405188334,
            24.27689361836175,
            24.27689361836175,
            26.21434756398042,
            26.259422059768173,
            26.486323788414662,
            26.514273072692504,
            26.514273072692504,
            28.42624014581749,
            28.42624014581749,
            28.679614599856528,
            29.262311911872832,
            29.350278685496153,
            29.519638541649595,
            29.519638541649595
        ]
    },
    "born_effective_charge": {
        "avg_abs_trace": 2.1052970833333333,
        "tensors": [
            [
                [
                    2.40124,
                    0.25926,
                    -0.11486
                ],
                [
                    0.25929,
                    2.40125,
                    -0.11486
                ],
                [
                    -0.06746,
                    -0.06746,
                    2.61172
                ]
            ],
            [
                [
                    2.40124,
                    -0.25926,
                    0.11486
                ],
                [
                    -0.25925,
                    2.40127,
                    -0.11487
                ],
                [
                    0.06746,
                    -0.06746,
                    2.61163
                ]
            ],
            [
                [
                    2.40128,
                    0.25928,
                    0.11487
                ],
                [
                    0.25925,
                    2.40127,
                    0.11487
                ],
                [
                    0.06746,
                    0.06746,
                    2.61172
                ]
            ],
            [
                [
                    2.40128,
                    -0.25928,
                    -0.11487
                ],
                [
                    -0.25929,
                    2.40125,
                    0.11486
                ],
                [
                    -0.06746,
                    0.06746,
                    2.61163
                ]
            ],
            [
                [
                    2.23314,
                    -0.00095,
                    1e-05
                ],
                [
                    0.00095,
                    2.23314,
                    -1e-05
                ],
                [
                    -0.0,
                    -0.0,
                    1.50716
                ]
            ],
            [
                [
                    2.23314,
                    0.00095,
                    -1e-05
                ],
                [
                    -0.00095,
                    2.23314,
                    1e-05
                ],
                [
                    -0.0,
                    -0.0,
                    1.50716
                ]
            ],
            [
                [
                    2.84421,
                    0.03731,
                    -0.02399
                ],
                [
                    0.03731,
                    2.84421,
                    -0.024
                ],
                [
                    -0.00948,
                    -0.00948,
                    2.85837
                ]
            ],
            [
                [
                    2.84421,
                    -0.03731,
                    0.02399
                ],
                [
                    -0.0373,
                    2.84418,
                    -0.02401
                ],
                [
                    0.00949,
                    -0.00949,
                    2.85837
                ]
            ],
            [
                [
                    2.84418,
                    0.0373,
                    0.02401
                ],
                [
                    0.0373,
                    2.84418,
                    0.02401
                ],
                [
                    0.00948,
                    0.00948,
                    2.85837
                ]
            ],
            [
                [
                    2.84418,
                    -0.0373,
                    -0.02401
                ],
                [
                    -0.03731,
                    2.84421,
                    0.024
                ],
                [
                    -0.00949,
                    0.00949,
                    2.85837
                ]
            ],
            [
                [
                    -2.11202,
                    0.78193,
                    -2e-05
                ],
                [
                    0.78193,
                    -2.11202,
                    -5e-05
                ],
                [
                    -0.0,
                    -0.0,
                    -1.58594
                ]
            ],
            [
                [
                    -2.11202,
                    -0.78193,
                    2e-05
                ],
                [
                    -0.78193,
                    -2.11202,
                    5e-05
                ],
                [
                    -0.0,
                    -0.0,
                    -1.58589
                ]
            ],
            [
                [
                    -1.5358,
                    -0.10915,
                    -0.03653
                ],
                [
                    -0.10915,
                    -1.53578,
                    -0.03652
                ],
                [
                    0.00466,
                    0.00466,
                    -2.22498
                ]
            ],
            [
                [
                    -1.5358,
                    0.10915,
                    0.03653
                ],
                [
                    0.10917,
                    -1.53578,
                    -0.03654
                ],
                [
                    -0.00459,
                    0.00459,
                    -2.2249
                ]
            ],
            [
                [
                    -1.53577,
                    -0.10917,
                    0.03653
                ],
                [
                    -0.10917,
                    -1.53578,
                    0.03654
                ],
                [
                    -0.00466,
                    -0.00466,
                    -2.22498
                ]
            ],
            [
                [
                    -1.53577,
                    0.10917,
                    -0.03653
                ],
                [
                    0.10915,
                    -1.53578,
                    0.03652
                ],
                [
                    0.00459,
                    -0.00459,
                    -2.2249
                ]
            ],
            [
                [
                    -1.65903,
                    0.19823,
                    0.07038
                ],
                [
                    0.25762,
                    -2.11124,
                    0.1176
                ],
                [
                    0.07571,
                    -0.0046,
                    -1.60294
                ]
            ],
            [
                [
                    -1.65903,
                    -0.19823,
                    -0.07038
                ],
                [
                    -0.25768,
                    -2.11117,
                    0.11759
                ],
                [
                    -0.07577,
                    -0.00473,
                    -1.60278
                ]
            ],
            [
                [
                    -1.65903,
                    0.19821,
                    -0.07044
                ],
                [
                    0.25768,
                    -2.11117,
                    -0.11759
                ],
                [
                    -0.07571,
                    0.0046,
                    -1.60294
                ]
            ],
            [
                [
                    -1.65903,
                    -0.19821,
                    0.07044
                ],
                [
                    -0.25762,
                    -2.11124,
                    -0.1176
                ],
                [
                    0.07577,
                    0.00473,
                    -1.60278
                ]
            ],
            [
                [
                    -2.11117,
                    -0.25769,
                    0.11758
                ],
                [
                    -0.19823,
                    -1.65903,
                    -0.07038
                ],
                [
                    -0.00473,
                    -0.07577,
                    -1.60278
                ]
            ],
            [
                [
                    -2.11117,
                    0.25769,
                    -0.11758
                ],
                [
                    0.19821,
                    -1.65903,
                    -0.07044
                ],
                [
                    0.0046,
                    -0.07571,
                    -1.60294
                ]
            ],
            [
                [
                    -2.11124,
                    -0.25762,
                    -0.11761
                ],
                [
                    -0.19821,
                    -1.65903,
                    0.07044
                ],
                [
                    0.00473,
                    0.07577,
                    -1.60278
                ]
            ],
            [
                [
                    -2.11124,
                    0.25762,
                    0.11761
                ],
                [
                    0.19823,
                    -1.65903,
                    0.07038
                ],
                [
                    -0.0046,
                    0.07571,
                    -1.60294
                ]
            ]
        ]
    },
    "band_gap": 4.2011,
    "is_direct": false,
    "formula": "Sr2ZnSi2O7"
}