{
    "mp_id": "mp-19172",
    "nelements": 3,
    "nsites": 24,
    "elements": [
        "K",
        "O",
        "V"
    ],
    "structure": {
        "@module": "pymatgen.core.structure",
        "@class": "Structure",
        "charge": null,
        "lattice": {
            "matrix": [
                [
                    4.98104235,
                    0.0,
                    0.00497601
                ],
                [
                    0.0,
                    8.41590431,
                    0.0
                ],
                [
                    -1.03629843,
                    0.0,
                    7.61608715
                ]
            ],
            "a": 4.981044835490747,
            "b": 8.41590431,
            "c": 7.686266838486392,
            "alpha": 90.0,
            "beta": 97.69124395617399,
            "gamma": 90.0,
            "volume": 319.3095865950022
        },
        "sites": [
            {
                "species": [
                    {
                        "element": "K",
                        "occu": 1
                    }
                ],
                "abc": [
                    0.95320549,
                    0.75,
                    0.07245793
                ],
                "xyz": [
                    4.672868874842452,
                    6.3119282325,
                    0.5565890696388944
                ],
                "label": "K",
                "properties": {}
            },
            {
                "species": [
                    {
                        "element": "K",
                        "occu": 1
                    }
                ],
                "abc": [
                    0.04679451,
                    0.25,
                    0.92754207
                ],
                "xyz": [
                    -0.7281249548424515,
                    2.1039760775,
                    7.064474090361106
                ],
                "label": "K",
                "properties": {}
            },
            {
                "species": [
                    {
                        "element": "V",
                        "occu": 1
                    }
                ],
                "abc": [
                    0.5558927,
                    0.44569023,
                    0.31604471
                ],
                "xyz": [
                    2.4414084439730397,
                    3.7508863275818913,
                    2.4097901822906036
                ],
                "label": "V",
                "properties": {}
            },
            {
                "species": [
                    {
                        "element": "V",
                        "occu": 1
                    }
                ],
                "abc": [
                    0.5558927,
                    0.05430977,
                    0.31604471
                ],
                "xyz": [
                    2.4414084439730397,
                    0.4570658274181087,
                    2.4097901822906036
                ],
                "label": "V",
                "properties": {}
            },
            {
                "species": [
                    {
                        "element": "V",
                        "occu": 1
                    }
                ],
                "abc": [
                    0.06697919,
                    0.25,
                    0.41108271
                ],
                "xyz": [
                    -0.09237818501444883,
                    2.1039760775,
                    3.1311750343374087
                ],
                "label": "V",
                "properties": {}
            },
            {
                "species": [
                    {
                        "element": "V",
                        "occu": 1
                    }
                ],
                "abc": [
                    0.4441073,
                    0.55430977,
                    0.68395529
                ],
                "xyz": [
                    1.5033354760269604,
                    4.665017982418109,
                    5.211272977709397
                ],
                "label": "V",
                "properties": {}
            },
            {
                "species": [
                    {
                        "element": "V",
                        "occu": 1
                    }
                ],
                "abc": [
                    0.93302081,
                    0.75,
                    0.58891729
                ],
                "xyz": [
                    4.037122105014449,
                    6.3119282325,
                    4.489888125662592
                ],
                "label": "V",
                "properties": {}
            },
            {
                "species": [
                    {
                        "element": "V",
                        "occu": 1
                    }
                ],
                "abc": [
                    0.4441073,
                    0.94569023,
                    0.68395529
                ],
                "xyz": [
                    1.5033354760269604,
                    7.958838482581891,
                    5.211272977709397
                ],
                "label": "V",
                "properties": {}
            },
            {
                "species": [
                    {
                        "element": "O",
                        "occu": 1
                    }
                ],
                "abc": [
                    0.31240421,
                    0.41291681,
                    0.49437021
                ],
                "xyz": [
                    1.0437835278665233,
                    3.4750683609504516,
                    3.7667211301968035
                ],
                "label": "O",
                "properties": {}
            },
            {
                "species": [
                    {
                        "element": "O",
                        "occu": 1
                    }
                ],
                "abc": [
                    0.68759579,
                    0.91291681,
                    0.50562979
                ],
                "xyz": [
                    2.9009603921334772,
                    7.683020515950451,
                    3.8543420298031963
                ],
                "label": "O",
                "properties": {}
            },
            {
                "species": [
                    {
                        "element": "O",
                        "occu": 1
                    }
                ],
                "abc": [
                    0.13360485,
                    0.75,
                    0.43835865
                ],
                "xyz": [
                    0.21122103524347802,
                    6.3119282325,
                    3.3392425004259962
                ],
                "label": "O",
                "properties": {}
            },
            {
                "species": [
                    {
                        "element": "O",
                        "occu": 1
                    }
                ],
                "abc": [
                    0.88135355,
                    0.40181803,
                    0.25727104
                ],
                "xyz": [
                    4.123449783036375,
                    3.3816620905127093,
                    1.9637842858894716
                ],
                "label": "O",
                "properties": {}
            },
            {
                "species": [
                    {
                        "element": "O",
                        "occu": 1
                    }
                ],
                "abc": [
                    0.41889115,
                    0.5667385,
                    0.16679929
                ],
                "xyz": [
                    1.9136607158380876,
                    4.769616984792935,
                    1.272442335749435
                ],
                "label": "O",
                "properties": {}
            },
            {
                "species": [
                    {
                        "element": "O",
                        "occu": 1
                    }
                ],
                "abc": [
                    0.68759579,
                    0.58708319,
                    0.50562979
                ],
                "xyz": [
                    2.9009603921334772,
                    4.940835949049549,
                    3.8543420298031963
                ],
                "label": "O",
                "properties": {}
            },
            {
                "species": [
                    {
                        "element": "O",
                        "occu": 1
                    }
                ],
                "abc": [
                    0.86639515,
                    0.25,
                    0.56164135
                ],
                "xyz": [
                    3.733522884756522,
                    2.1039760775,
                    4.281820659574005
                ],
                "label": "O",
                "properties": {}
            },
            {
                "species": [
                    {
                        "element": "O",
                        "occu": 1
                    }
                ],
                "abc": [
                    0.58110885,
                    0.4332615,
                    0.83320071
                ],
                "xyz": [
                    2.0310832041619125,
                    3.6462873252070653,
                    6.348620824250565
                ],
                "label": "O",
                "properties": {}
            },
            {
                "species": [
                    {
                        "element": "O",
                        "occu": 1
                    }
                ],
                "abc": [
                    0.11864645,
                    0.59818197,
                    0.74272896
                ],
                "xyz": [
                    -0.17870586303637526,
                    5.0342422194872904,
                    5.657278874110529
                ],
                "label": "O",
                "properties": {}
            },
            {
                "species": [
                    {
                        "element": "O",
                        "occu": 1
                    }
                ],
                "abc": [
                    0.40327836,
                    0.25,
                    0.23867643
                ],
                "xyz": [
                    1.761406580311541,
                    2.1039760775,
                    1.8197872086830182
                ],
                "label": "O",
                "properties": {}
            },
            {
                "species": [
                    {
                        "element": "O",
                        "occu": 1
                    }
                ],
                "abc": [
                    0.41889115,
                    0.9332615,
                    0.16679929
                ],
                "xyz": [
                    1.9136607158380876,
                    7.854239480207065,
                    1.272442335749435
                ],
                "label": "O",
                "properties": {}
            },
            {
                "species": [
                    {
                        "element": "O",
                        "occu": 1
                    }
                ],
                "abc": [
                    0.11864645,
                    0.90181803,
                    0.74272896
                ],
                "xyz": [
                    -0.17870586303637526,
                    7.58961424551271,
                    5.657278874110529
                ],
                "label": "O",
                "properties": {}
            },
            {
                "species": [
                    {
                        "element": "O",
                        "occu": 1
                    }
                ],
                "abc": [
                    0.88135355,
                    0.09818197,
                    0.25727104
                ],
                "xyz": [
                    4.123449783036375,
                    0.8262900644872907,
                    1.9637842858894716
                ],
                "label": "O",
                "properties": {}
            },
            {
                "species": [
                    {
                        "element": "O",
                        "occu": 1
                    }
                ],
                "abc": [
                    0.59672164,
                    0.75,
                    0.76132357
                ],
                "xyz": [
                    2.183337339688459,
                    6.3119282325,
                    5.801275951316982
                ],
                "label": "O",
                "properties": {}
            },
            {
                "species": [
                    {
                        "element": "O",
                        "occu": 1
                    }
                ],
                "abc": [
                    0.58110885,
                    0.0667385,
                    0.83320071
                ],
                "xyz": [
                    2.0310832041619125,
                    0.5616648297929351,
                    6.348620824250565
                ],
                "label": "O",
                "properties": {}
            },
            {
                "species": [
                    {
                        "element": "O",
                        "occu": 1
                    }
                ],
                "abc": [
                    0.31240421,
                    0.08708319,
                    0.49437021
                ],
                "xyz": [
                    1.0437835278665233,
                    0.732883794049549,
                    3.7667211301968035
                ],
                "label": "O",
                "properties": {}
            }
        ]
    },
    "spacegroup": {
        "source": "spglib",
        "symbol": "P2_1/m",
        "number": 11,
        "point_group": "2/m",
        "crystal_system": "monoclinic",
        "hall": "-P 2yb"
    },
    "dielectric": {
        "epsilon_ionic": [
            [
                14.83554465,
                -1.3e-07,
                1.16639535
            ],
            [
                -1.3e-07,
                22.15453397,
                -1.8e-07
            ],
            [
                1.16639535,
                -1.8e-07,
                3.71583371
            ]
        ],
        "epsilon_ionic_avg": 13.568637443333332,
        "epsilon_ionic_eig": [
            14.956575638977203,
            3.5948027210227944,
            22.15453397
        ],
        "epsilon_electronic": [
            [
                5.42669402,
                0.0,
                0.31805898
            ],
            [
                0.0,
                5.26542298,
                0.0
            ],
            [
                0.31805814,
                0.0,
                3.32399339
            ]
        ],
        "epsilon_electronic_avg": 4.672036796666667,
        "epsilon_electronic_eig": [
            5.4737510667923805,
            3.27693634320762,
            5.26542298
        ]
    },
    "phonon": {
        "lowest_freq": -0.10296409654789623,
        "frequency": [
            -0.10296409654789623,
            -0.03421992036999242,
            -0.0178558457797894,
            1.397213586240477,
            2.1118294656378045,
            2.2702136382180007,
            2.359761431183099,
            2.4075857109936543,
            2.8771377118504007,
            3.2706947275862754,
            3.6088467735464933,
            3.6882926875667805,
            3.9625359343018904,
            4.273133145568274,
            4.324008438020344,
            4.471014429178655,
            4.971557968256828,
            5.305162634575682,
            5.341375458308289,
            5.3479296716292,
            5.363191307439591,
            6.120619320193462,
            6.564269408831955,
            6.600833258352782,
            6.720367104201574,
            7.076379086234655,
            7.09579625708601,
            7.15032546463492,
            7.516443381422728,
            7.767102795392135,
            7.782483893873404,
            8.391350045962811,
            8.644907334652505,
            8.748134476664243,
            8.885781153428534,
            8.947092976568984,
            9.525530819541837,
            9.606568663230547,
            9.813040128047689,
            10.165153963902574,
            10.466085327209809,
            11.157407652522787,
            11.595951149065087,
            11.666292818329529,
            12.504761759344618,
            12.689897464810686,
            12.802031991513926,
            12.934585607240336,
            14.037763162198413,
            14.181256572370668,
            14.834017879259397,
            14.996738849110336,
            15.153082055514671,
            15.616968806459646,
            15.757186103183194,
            16.764131052450825,
            18.63724810978386,
            18.70033106188794,
            18.86883907940474,
            18.990703003455117,
            19.59095952481281,
            20.530233069874875,
            21.592090905868282,
            22.373926756731674,
            23.145230060361747,
            23.412687522092074,
            28.666905106976163,
            28.752195618940863,
            29.25451883423332,
            29.65455758986797,
            30.243705191642498,
            30.392457797573144
        ]
    },
    "born_effective_charge": {
        "avg_abs_trace": 2.525787361111111,
        "tensors": [
            [
                [
                    1.28873,
                    0.0,
                    0.00238
                ],
                [
                    -3e-05,
                    1.285,
                    -2e-05
                ],
                [
                    0.15772,
                    0.0,
                    1.80714
                ]
            ],
            [
                [
                    1.28876,
                    0.0,
                    0.00238
                ],
                [
                    3e-05,
                    1.285,
                    2e-05
                ],
                [
                    0.1577,
                    0.0,
                    1.80707
                ]
            ],
            [
                [
                    4.91963,
                    0.00399,
                    -0.43802
                ],
                [
                    -0.24176,
                    5.13583,
                    1.82528
                ],
                [
                    0.29823,
                    0.23992,
                    2.58088
                ]
            ],
            [
                [
                    4.91963,
                    -0.00399,
                    -0.43802
                ],
                [
                    0.24251,
                    5.13642,
                    -1.82611
                ],
                [
                    0.29823,
                    -0.23992,
                    2.58088
                ]
            ],
            [
                [
                    7.23809,
                    0.0,
                    2.60578
                ],
                [
                    0.0005,
                    6.41183,
                    0.00043
                ],
                [
                    0.80588,
                    0.0,
                    2.15971
                ]
            ],
            [
                [
                    4.91966,
                    0.004,
                    -0.43791
                ],
                [
                    -0.24251,
                    5.13642,
                    1.82611
                ],
                [
                    0.29786,
                    0.24041,
                    2.58095
                ]
            ],
            [
                [
                    7.23804,
                    0.0,
                    2.60576
                ],
                [
                    -0.0005,
                    6.41183,
                    -0.00043
                ],
                [
                    0.80593,
                    0.0,
                    2.16038
                ]
            ],
            [
                [
                    4.91966,
                    -0.004,
                    -0.43791
                ],
                [
                    0.24176,
                    5.13583,
                    -1.82528
                ],
                [
                    0.29786,
                    -0.24041,
                    2.58095
                ]
            ],
            [
                [
                    -2.98009,
                    -1.5787,
                    0.01352
                ],
                [
                    -1.5911,
                    -3.28666,
                    -2.12204
                ],
                [
                    -0.20002,
                    -0.90685,
                    -1.40038
                ]
            ],
            [
                [
                    -2.98001,
                    1.57887,
                    0.01366
                ],
                [
                    1.5911,
                    -3.28666,
                    2.12204
                ],
                [
                    -0.19999,
                    0.90719,
                    -1.40064
                ]
            ],
            [
                [
                    -1.72164,
                    0.0,
                    0.61255
                ],
                [
                    0.00029,
                    -0.80358,
                    -3e-05
                ],
                [
                    0.21807,
                    0.0,
                    -0.79465
                ]
            ],
            [
                [
                    -3.45186,
                    1.35298,
                    -0.66554
                ],
                [
                    1.26817,
                    -1.8652,
                    0.27118
                ],
                [
                    -0.22099,
                    0.27072,
                    -0.89993
                ]
            ],
            [
                [
                    -0.82513,
                    0.45891,
                    -0.56173
                ],
                [
                    0.42853,
                    -1.49185,
                    0.85752
                ],
                [
                    -0.4393,
                    0.73257,
                    -1.45852
                ]
            ],
            [
                [
                    -2.98001,
                    -1.57887,
                    0.01366
                ],
                [
                    -1.59118,
                    -3.28637,
                    -2.12205
                ],
                [
                    -0.19999,
                    -0.90719,
                    -1.40064
                ]
            ],
            [
                [
                    -1.72163,
                    0.0,
                    0.61294
                ],
                [
                    -0.00029,
                    -0.80358,
                    3e-05
                ],
                [
                    0.21771,
                    0.0,
                    -0.79374
                ]
            ],
            [
                [
                    -0.82497,
                    0.45899,
                    -0.56223
                ],
                [
                    0.42816,
                    -1.49103,
                    0.85804
                ],
                [
                    -0.43881,
                    0.73276,
                    -1.45874
                ]
            ],
            [
                [
                    -3.45177,
                    1.35294,
                    -0.6653
                ],
                [
                    1.26855,
                    -1.865,
                    0.27073
                ],
                [
                    -0.221,
                    0.27081,
                    -0.89927
                ]
            ],
            [
                [
                    -2.13054,
                    0.0,
                    0.08271
                ],
                [
                    -0.00023,
                    -3.8794,
                    -0.00021
                ],
                [
                    -0.05719,
                    0.0,
                    -0.8168
                ]
            ],
            [
                [
                    -0.82513,
                    -0.45891,
                    -0.56173
                ],
                [
                    -0.42816,
                    -1.49103,
                    -0.85804
                ],
                [
                    -0.4393,
                    -0.73257,
                    -1.45852
                ]
            ],
            [
                [
                    -3.45177,
                    -1.35294,
                    -0.6653
                ],
                [
                    -1.26817,
                    -1.8652,
                    -0.27118
                ],
                [
                    -0.221,
                    -0.27081,
                    -0.89927
                ]
            ],
            [
                [
                    -3.45186,
                    -1.35298,
                    -0.66554
                ],
                [
                    -1.26855,
                    -1.865,
                    -0.27073
                ],
                [
                    -0.22099,
                    -0.27072,
                    -0.89993
                ]
            ],
            [
                [
                    -2.13077,
                    0.0,
                    0.08264
                ],
                [
                    0.00023,
                    -3.8794,
                    0.00021
                ],
                [
                    -0.05782,
                    0.0,
                    -0.8178
                ]
            ],
            [
                [
                    -0.82497,
                    -0.45899,
                    -0.56223
                ],
                [
                    -0.42853,
                    -1.49185,
                    -0.85752
                ],
                [
                    -0.43881,
                    -0.73276,
                    -1.45874
                ]
            ],
            [
                [
                    -2.98009,
                    1.5787,
                    0.01352
                ],
                [
                    1.59118,
                    -3.28637,
                    2.12205
                ],
                [
                    -0.20002,
                    0.90685,
                    -1.40038
                ]
            ]
        ]
    },
    "band_gap": 2.1427,
    "is_direct": false,
    "formula": "KV3O8"
}