{
    "mp_id": "mp-1095378",
    "nelements": 3,
    "nsites": 12,
    "elements": [
        "As",
        "Au",
        "O"
    ],
    "structure": {
        "@module": "pymatgen.core.structure",
        "@class": "Structure",
        "charge": null,
        "lattice": {
            "matrix": [
                [
                    4.01677837,
                    -3.06356575,
                    -0.00630098
                ],
                [
                    4.01677837,
                    3.06356575,
                    -0.00630098
                ],
                [
                    -0.90338948,
                    0.0,
                    7.59202158
                ]
            ],
            "a": 5.051730721309468,
            "b": 5.051730721309468,
            "c": 7.645580698924077,
            "alpha": 95.462240122894,
            "beta": 95.462240122894,
            "gamma": 74.66490278452888,
            "volume": 186.81486590411566
        },
        "sites": [
            {
                "species": [
                    {
                        "element": "As",
                        "occu": 1
                    }
                ],
                "abc": [
                    0.06227115,
                    0.93772885,
                    0.75
                ],
                "xyz": [
                    3.33923626,
                    2.682022225293775,
                    5.687715205
                ],
                "label": "As",
                "properties": {}
            },
            {
                "species": [
                    {
                        "element": "As",
                        "occu": 1
                    }
                ],
                "abc": [
                    0.93772885,
                    0.06227115,
                    0.25
                ],
                "xyz": [
                    3.790931,
                    -2.682022225293775,
                    1.891704415
                ],
                "label": "As",
                "properties": {}
            },
            {
                "species": [
                    {
                        "element": "Au",
                        "occu": 1
                    }
                ],
                "abc": [
                    0.5,
                    0.0,
                    0.5
                ],
                "xyz": [
                    1.556694445,
                    -1.531782875,
                    3.7928603
                ],
                "label": "Au",
                "properties": {}
            },
            {
                "species": [
                    {
                        "element": "Au",
                        "occu": 1
                    }
                ],
                "abc": [
                    0.0,
                    0.5,
                    0.0
                ],
                "xyz": [
                    2.008389185,
                    1.531782875,
                    -0.00315049
                ],
                "label": "Au",
                "properties": {}
            },
            {
                "species": [
                    {
                        "element": "O",
                        "occu": 1
                    }
                ],
                "abc": [
                    0.20273595,
                    0.75619652,
                    0.93221481
                ],
                "xyz": [
                    3.0096661513324747,
                    1.6955628462274777,
                    7.071352740400778
                ],
                "label": "O",
                "properties": {}
            },
            {
                "species": [
                    {
                        "element": "O",
                        "occu": 1
                    }
                ],
                "abc": [
                    0.24380348,
                    0.79726405,
                    0.56778519
                ],
                "xyz": [
                    3.668806368667525,
                    1.6955628462274777,
                    4.304077669599221
                ],
                "label": "O",
                "properties": {}
            },
            {
                "species": [
                    {
                        "element": "O",
                        "occu": 1
                    }
                ],
                "abc": [
                    0.79726405,
                    0.24380348,
                    0.06778519
                ],
                "xyz": [
                    4.120501108667525,
                    -1.6955628462274777,
                    0.5080668795992208
                ],
                "label": "O",
                "properties": {}
            },
            {
                "species": [
                    {
                        "element": "O",
                        "occu": 1
                    }
                ],
                "abc": [
                    0.75619652,
                    0.20273595,
                    0.43221481
                ],
                "xyz": [
                    3.461360891332475,
                    -1.6955628462274777,
                    3.2753419504007795
                ],
                "label": "O",
                "properties": {}
            },
            {
                "species": [
                    {
                        "element": "O",
                        "occu": 1
                    }
                ],
                "abc": [
                    0.10797473,
                    0.26571497,
                    0.78342263
                ],
                "xyz": [
                    0.7932929417158567,
                    0.48324759666078,
                    5.94540690189445
                ],
                "label": "O",
                "properties": {}
            },
            {
                "species": [
                    {
                        "element": "O",
                        "occu": 1
                    }
                ],
                "abc": [
                    0.73428503,
                    0.89202527,
                    0.71657737
                ],
                "xyz": [
                    5.885179578284143,
                    0.4832475966607799,
                    5.430023508105551
                ],
                "label": "O",
                "properties": {}
            },
            {
                "species": [
                    {
                        "element": "O",
                        "occu": 1
                    }
                ],
                "abc": [
                    0.89202527,
                    0.73428503,
                    0.21657737
                ],
                "xyz": [
                    6.336874318284143,
                    -0.4832475966607799,
                    1.6340127181055506
                ],
                "label": "O",
                "properties": {}
            },
            {
                "species": [
                    {
                        "element": "O",
                        "occu": 1
                    }
                ],
                "abc": [
                    0.26571497,
                    0.10797473,
                    0.28342263
                ],
                "xyz": [
                    1.2449876817158567,
                    -0.48324759666078,
                    2.1493961118944496
                ],
                "label": "O",
                "properties": {}
            }
        ]
    },
    "spacegroup": {
        "source": "spglib",
        "symbol": "C2/c",
        "number": 15,
        "point_group": "2/m",
        "crystal_system": "monoclinic",
        "hall": "-C 2yc"
    },
    "dielectric": {
        "epsilon_ionic": [
            [
                2.05443748,
                2e-08,
                -0.48357174
            ],
            [
                2e-08,
                1.7567179,
                -3e-08
            ],
            [
                -0.48357174,
                -3e-08,
                2.34787867
            ]
        ],
        "epsilon_ionic_avg": 2.05301135,
        "epsilon_ionic_eig": [
            2.7064981196469517,
            1.6958180303530486,
            1.7567178999999982
        ],
        "epsilon_electronic": [
            [
                4.37990082,
                0.0,
                -0.21429773
            ],
            [
                0.0,
                3.62112383,
                0.0
            ],
            [
                -0.21429656,
                0.0,
                4.43000665
            ]
        ],
        "epsilon_electronic_avg": 4.1436771,
        "epsilon_electronic_eig": [
            4.1891971246613915,
            4.620710345338608,
            3.62112383
        ]
    },
    "phonon": {
        "lowest_freq": -0.04312095410635937,
        "frequency": [
            -0.04312095410635937,
            -0.039708600436007734,
            -0.01922892644391364,
            2.4025393097154244,
            2.9097954789053357,
            3.525621476778991,
            3.6462305770347934,
            3.7198773211842378,
            4.977603806941996,
            5.877160628263672,
            6.131249582944799,
            6.351932362654183,
            6.529114601920292,
            6.958450402128657,
            7.621550222555242,
            7.988470089203157,
            8.141287094653045,
            8.234211523359795,
            8.57132025978921,
            9.149822141583293,
            13.417644372372427,
            15.399434082125827,
            15.5004287008543,
            15.552006904509918,
            15.788860378623157,
            16.180243113498506,
            17.28281432915286,
            17.52608238578941,
            22.05359432035368,
            22.135524088793666,
            23.182985558457613,
            23.27436800651222,
            23.652971522505805,
            23.82995546515911,
            23.91813349447489,
            25.15696973126615
        ]
    },
    "born_effective_charge": {
        "avg_abs_trace": 2.0875638888888886,
        "tensors": [
            [
                [
                    4.12238,
                    1e-05,
                    -1.86146
                ],
                [
                    0.0,
                    3.70304,
                    0.0
                ],
                [
                    1.48793,
                    0.00014,
                    4.38997
                ]
            ],
            [
                [
                    4.12238,
                    -1e-05,
                    -1.86146
                ],
                [
                    0.0,
                    3.70366,
                    0.0
                ],
                [
                    1.48793,
                    -0.00014,
                    4.38997
                ]
            ],
            [
                [
                    2.67028,
                    -0.91103,
                    0.37802
                ],
                [
                    -1.25979,
                    1.53902,
                    -0.78638
                ],
                [
                    -0.71647,
                    -0.62031,
                    2.36308
                ]
            ],
            [
                [
                    2.67028,
                    0.91103,
                    0.37802
                ],
                [
                    1.25979,
                    1.53902,
                    0.78638
                ],
                [
                    -0.71647,
                    0.62031,
                    2.36308
                ]
            ],
            [
                [
                    -1.93521,
                    -0.60344,
                    1.06032
                ],
                [
                    -0.53861,
                    -1.14496,
                    0.67607
                ],
                [
                    0.5358,
                    0.51817,
                    -1.6985
                ]
            ],
            [
                [
                    -1.93515,
                    0.60347,
                    1.0604
                ],
                [
                    0.53861,
                    -1.14496,
                    -0.67607
                ],
                [
                    0.53598,
                    -0.51812,
                    -1.69875
                ]
            ],
            [
                [
                    -1.93515,
                    -0.60347,
                    1.0604
                ],
                [
                    -0.53852,
                    -1.14493,
                    0.67669
                ],
                [
                    0.53598,
                    0.51812,
                    -1.69875
                ]
            ],
            [
                [
                    -1.93521,
                    0.60344,
                    1.06032
                ],
                [
                    0.53852,
                    -1.14493,
                    -0.67669
                ],
                [
                    0.5358,
                    -0.51817,
                    -1.6985
                ]
            ],
            [
                [
                    -1.46107,
                    -0.68573,
                    -0.31873
                ],
                [
                    -0.78835,
                    -1.47607,
                    -0.77285
                ],
                [
                    -0.92167,
                    -0.9066,
                    -1.67791
                ]
            ],
            [
                [
                    -1.46123,
                    0.68598,
                    -0.31856
                ],
                [
                    0.78835,
                    -1.47607,
                    0.77285
                ],
                [
                    -0.92156,
                    0.90636,
                    -1.67788
                ]
            ],
            [
                [
                    -1.46123,
                    -0.68598,
                    -0.31856
                ],
                [
                    -0.78855,
                    -1.47641,
                    -0.77294
                ],
                [
                    -0.92156,
                    -0.90636,
                    -1.67788
                ]
            ],
            [
                [
                    -1.46107,
                    0.68573,
                    -0.31873
                ],
                [
                    0.78855,
                    -1.47641,
                    0.77294
                ],
                [
                    -0.92167,
                    0.9066,
                    -1.67791
                ]
            ]
        ]
    },
    "band_gap": 2.216,
    "is_direct": false,
    "formula": "AsAuO4"
}