{
    "mp_id": "mp-1194834",
    "nelements": 4,
    "nsites": 32,
    "elements": [
        "Ba",
        "O",
        "Sc",
        "Si"
    ],
    "structure": {
        "@module": "pymatgen.core.structure",
        "@class": "Structure",
        "charge": null,
        "lattice": {
            "matrix": [
                [
                    5.26761937,
                    0.0,
                    -0.0001479
                ],
                [
                    0.0,
                    11.90891163,
                    0.0
                ],
                [
                    -1.96222433,
                    0.0,
                    6.28435276
                ]
            ],
            "a": 5.267619372076309,
            "b": 11.90891163,
            "c": 6.5835715180564085,
            "alpha": 90.0,
            "beta": 107.34204436800519,
            "gamma": 90.0,
            "volume": 394.22413280622663
        },
        "sites": [
            {
                "species": [
                    {
                        "element": "Ba",
                        "occu": 1
                    }
                ],
                "abc": [
                    0.7593289,
                    0.75,
                    0.02339599
                ],
                "xyz": [
                    3.9539474410383564,
                    8.9316837225,
                    0.14691634958512237
                ],
                "label": "Ba",
                "properties": {}
            },
            {
                "species": [
                    {
                        "element": "Ba",
                        "occu": 1
                    }
                ],
                "abc": [
                    0.2406711,
                    0.25,
                    0.97660401
                ],
                "xyz": [
                    -0.6485524010383561,
                    2.9772279075,
                    6.137288510414877
                ],
                "label": "Ba",
                "properties": {}
            },
            {
                "species": [
                    {
                        "element": "Sc",
                        "occu": 1
                    }
                ],
                "abc": [
                    0.14856091,
                    0.89749929,
                    0.67543498
                ],
                "xyz": [
                    -0.5427926239482367,
                    10.688239732597742,
                    4.244649708604956
                ],
                "label": "Sc",
                "properties": {}
            },
            {
                "species": [
                    {
                        "element": "Sc",
                        "occu": 1
                    }
                ],
                "abc": [
                    0.85143909,
                    0.39749929,
                    0.32456502
                ],
                "xyz": [
                    3.848187663948237,
                    4.7337839175977425,
                    2.039555151395044
                ],
                "label": "Sc",
                "properties": {}
            },
            {
                "species": [
                    {
                        "element": "Sc",
                        "occu": 1
                    }
                ],
                "abc": [
                    0.85143909,
                    0.10250071,
                    0.32456502
                ],
                "xyz": [
                    3.848187663948237,
                    1.2206718974022572,
                    2.039555151395044
                ],
                "label": "Sc",
                "properties": {}
            },
            {
                "species": [
                    {
                        "element": "Sc",
                        "occu": 1
                    }
                ],
                "abc": [
                    0.14856091,
                    0.60250071,
                    0.67543498
                ],
                "xyz": [
                    -0.5427926239482367,
                    7.175127712402258,
                    4.244649708604956
                ],
                "label": "Sc",
                "properties": {}
            },
            {
                "species": [
                    {
                        "element": "Si",
                        "occu": 1
                    }
                ],
                "abc": [
                    0.57192729,
                    0.75,
                    0.48637063
                ],
                "xyz": [
                    2.0583269874521792,
                    8.9316837225,
                    3.056440022977248
                ],
                "label": "Si",
                "properties": {}
            },
            {
                "species": [
                    {
                        "element": "Si",
                        "occu": 1
                    }
                ],
                "abc": [
                    0.42807271,
                    0.25,
                    0.51362937
                ],
                "xyz": [
                    1.247068052547821,
                    2.9772279075,
                    3.227764837022752
                ],
                "label": "Si",
                "properties": {}
            },
            {
                "species": [
                    {
                        "element": "Si",
                        "occu": 1
                    }
                ],
                "abc": [
                    0.30219241,
                    0.94840174,
                    0.20897874
                ],
                "xyz": [
                    1.1817714243022377,
                    11.294432511398236,
                    1.3132514272428832
                ],
                "label": "Si",
                "properties": {}
            },
            {
                "species": [
                    {
                        "element": "Si",
                        "occu": 1
                    }
                ],
                "abc": [
                    0.69780759,
                    0.44840174,
                    0.79102126
                ],
                "xyz": [
                    2.123623615697763,
                    5.339976696398236,
                    4.970953432757116
                ],
                "label": "Si",
                "properties": {}
            },
            {
                "species": [
                    {
                        "element": "Si",
                        "occu": 1
                    }
                ],
                "abc": [
                    0.69780759,
                    0.05159826,
                    0.79102126
                ],
                "xyz": [
                    2.123623615697763,
                    0.6144791186017639,
                    4.970953432757116
                ],
                "label": "Si",
                "properties": {}
            },
            {
                "species": [
                    {
                        "element": "Si",
                        "occu": 1
                    }
                ],
                "abc": [
                    0.30219241,
                    0.55159826,
                    0.20897874
                ],
                "xyz": [
                    1.1817714243022377,
                    6.568934933601764,
                    1.3132514272428832
                ],
                "label": "Si",
                "properties": {}
            },
            {
                "species": [
                    {
                        "element": "O",
                        "occu": 1
                    }
                ],
                "abc": [
                    0.33938387,
                    0.75,
                    0.6027222
                ],
                "xyz": [
                    0.6050688824064359,
                    8.9316837225,
                    3.787668726208899
                ],
                "label": "O",
                "properties": {}
            },
            {
                "species": [
                    {
                        "element": "O",
                        "occu": 1
                    }
                ],
                "abc": [
                    0.66061613,
                    0.25,
                    0.3972778
                ],
                "xyz": [
                    2.7003261575935644,
                    2.9772279075,
                    2.496536133791101
                ],
                "label": "O",
                "properties": {}
            },
            {
                "species": [
                    {
                        "element": "O",
                        "occu": 1
                    }
                ],
                "abc": [
                    0.87811792,
                    0.75,
                    0.64009277
                ],
                "xyz": [
                    3.3695853577850166,
                    8.9316837225,
                    4.022438892165177
                ],
                "label": "O",
                "properties": {}
            },
            {
                "species": [
                    {
                        "element": "O",
                        "occu": 1
                    }
                ],
                "abc": [
                    0.12188208,
                    0.25,
                    0.35990723
                ],
                "xyz": [
                    -0.06419031778501627,
                    2.9772279075,
                    2.261765967834823
                ],
                "label": "O",
                "properties": {}
            },
            {
                "species": [
                    {
                        "element": "O",
                        "occu": 1
                    }
                ],
                "abc": [
                    0.54346978,
                    0.85838482,
                    0.32818744
                ],
                "xyz": [
                    2.218814560569224,
                    10.222428965913458,
                    2.062365265180872
                ],
                "label": "O",
                "properties": {}
            },
            {
                "species": [
                    {
                        "element": "O",
                        "occu": 1
                    }
                ],
                "abc": [
                    0.45653022,
                    0.35838482,
                    0.67181256
                ],
                "xyz": [
                    1.0865804794307765,
                    4.267973150913456,
                    4.221839594819127
                ],
                "label": "O",
                "properties": {}
            },
            {
                "species": [
                    {
                        "element": "O",
                        "occu": 1
                    }
                ],
                "abc": [
                    0.45653022,
                    0.14161518,
                    0.67181256
                ],
                "xyz": [
                    1.0865804794307765,
                    1.6864826640865436,
                    4.221839594819127
                ],
                "label": "O",
                "properties": {}
            },
            {
                "species": [
                    {
                        "element": "O",
                        "occu": 1
                    }
                ],
                "abc": [
                    0.54346978,
                    0.64161518,
                    0.32818744
                ],
                "xyz": [
                    2.218814560569224,
                    7.640938479086543,
                    2.062365265180872
                ],
                "label": "O",
                "properties": {}
            },
            {
                "species": [
                    {
                        "element": "O",
                        "occu": 1
                    }
                ],
                "abc": [
                    0.45934323,
                    0.06374238,
                    0.1986229
                ],
                "xyz": [
                    2.0299026089512084,
                    0.7591023705058795,
                    1.2481484329504868
                ],
                "label": "O",
                "properties": {}
            },
            {
                "species": [
                    {
                        "element": "O",
                        "occu": 1
                    }
                ],
                "abc": [
                    0.54065677,
                    0.56374238,
                    0.8013771
                ],
                "xyz": [
                    1.275492431048792,
                    6.71355818550588,
                    5.0360564270495125
                ],
                "label": "O",
                "properties": {}
            },
            {
                "species": [
                    {
                        "element": "O",
                        "occu": 1
                    }
                ],
                "abc": [
                    0.54065677,
                    0.93625762,
                    0.8013771
                ],
                "xyz": [
                    1.275492431048792,
                    11.149809259494122,
                    5.0360564270495125
                ],
                "label": "O",
                "properties": {}
            },
            {
                "species": [
                    {
                        "element": "O",
                        "occu": 1
                    }
                ],
                "abc": [
                    0.45934323,
                    0.43625762,
                    0.1986229
                ],
                "xyz": [
                    2.0299026089512084,
                    5.1953534444941205,
                    1.2481484329504868
                ],
                "label": "O",
                "properties": {}
            },
            {
                "species": [
                    {
                        "element": "O",
                        "occu": 1
                    }
                ],
                "abc": [
                    0.14255072,
                    0.8901211,
                    0.98320315
                ],
                "xyz": [
                    -1.178362208383193,
                    10.600373519898394,
                    6.178774346091706
                ],
                "label": "O",
                "properties": {}
            },
            {
                "species": [
                    {
                        "element": "O",
                        "occu": 1
                    }
                ],
                "abc": [
                    0.85744928,
                    0.3901211,
                    0.01679685
                ],
                "xyz": [
                    4.483757248383193,
                    4.645917704898393,
                    0.10543051390829399
                ],
                "label": "O",
                "properties": {}
            },
            {
                "species": [
                    {
                        "element": "O",
                        "occu": 1
                    }
                ],
                "abc": [
                    0.85744928,
                    0.1098789,
                    0.01679685
                ],
                "xyz": [
                    4.483757248383193,
                    1.3085381101016071,
                    0.10543051390829399
                ],
                "label": "O",
                "properties": {}
            },
            {
                "species": [
                    {
                        "element": "O",
                        "occu": 1
                    }
                ],
                "abc": [
                    0.14255072,
                    0.6098789,
                    0.98320315
                ],
                "xyz": [
                    -1.178362208383193,
                    7.262993925101608,
                    6.178774346091706
                ],
                "label": "O",
                "properties": {}
            },
            {
                "species": [
                    {
                        "element": "O",
                        "occu": 1
                    }
                ],
                "abc": [
                    0.10317856,
                    0.9589469,
                    0.36036995
                ],
                "xyz": [
                    -0.16362130246617623,
                    11.420013889962448,
                    2.264676629794538
                ],
                "label": "O",
                "properties": {}
            },
            {
                "species": [
                    {
                        "element": "O",
                        "occu": 1
                    }
                ],
                "abc": [
                    0.89682144,
                    0.4589469,
                    0.63963005
                ],
                "xyz": [
                    3.469016342466176,
                    5.4655580749624475,
                    4.019528230205462
                ],
                "label": "O",
                "properties": {}
            },
            {
                "species": [
                    {
                        "element": "O",
                        "occu": 1
                    }
                ],
                "abc": [
                    0.89682144,
                    0.0410531,
                    0.63963005
                ],
                "xyz": [
                    3.469016342466176,
                    0.48889774003755304,
                    4.019528230205462
                ],
                "label": "O",
                "properties": {}
            },
            {
                "species": [
                    {
                        "element": "O",
                        "occu": 1
                    }
                ],
                "abc": [
                    0.10317856,
                    0.5410531,
                    0.36036995
                ],
                "xyz": [
                    -0.16362130246617623,
                    6.443353555037553,
                    2.264676629794538
                ],
                "label": "O",
                "properties": {}
            }
        ]
    },
    "spacegroup": {
        "source": "spglib",
        "symbol": "P2_1/m",
        "number": 11,
        "point_group": "2/m",
        "crystal_system": "monoclinic",
        "hall": "-P 2yb"
    },
    "dielectric": {
        "epsilon_ionic": [
            [
                7.40157482,
                -0.0,
                0.23512866
            ],
            [
                -0.0,
                6.99482566,
                0.0
            ],
            [
                0.23512866,
                0.0,
                6.53739405
            ]
        ],
        "epsilon_ionic_avg": 6.97793151,
        "epsilon_ionic_eig": [
            7.461406773954884,
            6.477562096045116,
            6.99482566
        ],
        "epsilon_electronic": [
            [
                3.5777463,
                0.0,
                -0.07091157
            ],
            [
                0.0,
                3.42988,
                0.0
            ],
            [
                -0.07090661,
                0.0,
                3.55622417
            ]
        ],
        "epsilon_electronic_avg": 3.5212834899999996,
        "epsilon_electronic_eig": [
            3.6387062190870294,
            3.4952642509129705,
            3.42988
        ]
    },
    "phonon": {
        "lowest_freq": -0.10038951555571753,
        "frequency": [
            -0.10038951555571753,
            -0.09654876283024787,
            -0.024597718156550152,
            2.384445171311551,
            2.6256438532915793,
            2.7629478684743227,
            2.8003515523954383,
            3.0190157686418586,
            3.28168798818459,
            3.6845758034300724,
            3.7559469307781583,
            3.7686217479268587,
            4.429068822420325,
            4.512855819099266,
            4.5679115550127785,
            4.717585055903441,
            4.848180475338133,
            5.0417917876005145,
            5.064202441184979,
            5.4811101462227985,
            5.562473231486646,
            5.623648848833748,
            6.389384844000149,
            6.7114009835558495,
            7.06325926866229,
            7.072601528020498,
            7.3270745309575105,
            7.501781692593278,
            7.528762165601802,
            7.721761511115393,
            7.851876922379715,
            8.21318040280523,
            8.285915939855249,
            8.578515525557355,
            8.595677859780833,
            8.64720123568654,
            8.929502303704965,
            8.951195508983991,
            9.834574468404327,
            9.887483792922716,
            9.911382174517634,
            10.016940656155109,
            10.275990344806438,
            10.439486950297177,
            10.473237133635658,
            10.517024579718594,
            10.743799249421182,
            11.078135385971956,
            11.126024017343981,
            11.20612824081869,
            11.906232833371279,
            11.98407174830087,
            12.559340919665367,
            12.60040590728582,
            12.807403664042146,
            13.047299651031503,
            13.602176459972549,
            13.704850012892956,
            13.721319980949085,
            13.903913874030199,
            13.937128144998391,
            14.463482373973154,
            14.540428222549638,
            15.050903818335945,
            16.012347509514203,
            16.014268271717096,
            16.020773190036167,
            16.041578531095045,
            16.22492485229182,
            16.486880289200002,
            17.068524320444435,
            17.17906091360263,
            19.4626904852624,
            19.609511516351493,
            20.723934523647845,
            20.973134967096325,
            24.688591629769146,
            24.77280264300529,
            25.69113447221593,
            26.113576078997436,
            26.257115649056086,
            26.503690214224736,
            26.61387826309667,
            26.81406527377652,
            27.567153113892175,
            27.587184372437754,
            28.242547414460084,
            28.373327243443843,
            28.50803266603682,
            28.539795268189938,
            29.37426654127364,
            29.946905826421307,
            30.013737621352846,
            30.742884726087034,
            30.7808986459966,
            31.764149491472836
        ]
    },
    "born_effective_charge": {
        "avg_abs_trace": 2.5771053125,
        "tensors": [
            [
                [
                    2.72594,
                    0.0,
                    -0.16724
                ],
                [
                    -1e-05,
                    2.8775,
                    -0.0
                ],
                [
                    -0.19049,
                    0.0,
                    2.54012
                ]
            ],
            [
                [
                    2.72593,
                    0.0,
                    -0.16716
                ],
                [
                    1e-05,
                    2.8775,
                    0.0
                ],
                [
                    -0.19068,
                    0.0,
                    2.54031
                ]
            ],
            [
                [
                    4.0493,
                    -0.08767,
                    -0.11433
                ],
                [
                    -0.05441,
                    3.52305,
                    -0.00725
                ],
                [
                    -0.1886,
                    -0.08725,
                    3.9231
                ]
            ],
            [
                [
                    4.04937,
                    0.08762,
                    -0.11419
                ],
                [
                    0.05441,
                    3.52305,
                    0.00725
                ],
                [
                    -0.18883,
                    0.08752,
                    3.92296
                ]
            ],
            [
                [
                    4.04937,
                    -0.08762,
                    -0.11419
                ],
                [
                    -0.0544,
                    3.52305,
                    -0.00725
                ],
                [
                    -0.18883,
                    -0.08752,
                    3.92296
                ]
            ],
            [
                [
                    4.0493,
                    0.08767,
                    -0.11433
                ],
                [
                    0.0544,
                    3.52305,
                    0.00725
                ],
                [
                    -0.1886,
                    0.08725,
                    3.9231
                ]
            ],
            [
                [
                    3.37563,
                    0.0,
                    0.16933
                ],
                [
                    1e-05,
                    3.23689,
                    -1e-05
                ],
                [
                    -0.18434,
                    0.0,
                    3.42157
                ]
            ],
            [
                [
                    3.37558,
                    0.0,
                    0.16931
                ],
                [
                    -1e-05,
                    3.23689,
                    1e-05
                ],
                [
                    -0.18417,
                    0.0,
                    3.42157
                ]
            ],
            [
                [
                    3.3789,
                    0.24327,
                    -0.21831
                ],
                [
                    -0.1683,
                    3.34175,
                    0.01815
                ],
                [
                    0.09265,
                    0.36299,
                    3.62035
                ]
            ],
            [
                [
                    3.37891,
                    -0.24326,
                    -0.21827
                ],
                [
                    0.1683,
                    3.34175,
                    -0.01815
                ],
                [
                    0.09261,
                    -0.363,
                    3.62032
                ]
            ],
            [
                [
                    3.37891,
                    0.24326,
                    -0.21827
                ],
                [
                    -0.16832,
                    3.34174,
                    0.01816
                ],
                [
                    0.09261,
                    0.363,
                    3.62032
                ]
            ],
            [
                [
                    3.3789,
                    -0.24327,
                    -0.21831
                ],
                [
                    0.16832,
                    3.34174,
                    -0.01816
                ],
                [
                    0.09265,
                    -0.36299,
                    3.62035
                ]
            ],
            [
                [
                    -2.38556,
                    0.0,
                    0.38203
                ],
                [
                    -2e-05,
                    -2.32339,
                    2e-05
                ],
                [
                    0.52787,
                    0.0,
                    -1.55022
                ]
            ],
            [
                [
                    -2.38554,
                    0.0,
                    0.38198
                ],
                [
                    2e-05,
                    -2.32339,
                    -2e-05
                ],
                [
                    0.52784,
                    0.0,
                    -1.55015
                ]
            ],
            [
                [
                    -2.5216,
                    0.0,
                    -0.38316
                ],
                [
                    -6e-05,
                    -1.94319,
                    -2e-05
                ],
                [
                    -0.42291,
                    0.0,
                    -1.68766
                ]
            ],
            [
                [
                    -2.52156,
                    0.0,
                    -0.38327
                ],
                [
                    6e-05,
                    -1.94319,
                    2e-05
                ],
                [
                    -0.42291,
                    0.0,
                    -1.68755
                ]
            ],
            [
                [
                    -1.59189,
                    0.33869,
                    -0.10165
                ],
                [
                    0.43221,
                    -2.25263,
                    0.6873
                ],
                [
                    -0.12947,
                    0.60973,
                    -1.92532
                ]
            ],
            [
                [
                    -1.59195,
                    -0.33871,
                    -0.10171
                ],
                [
                    -0.43221,
                    -2.25263,
                    -0.6873
                ],
                [
                    -0.1293,
                    -0.60966,
                    -1.92523
                ]
            ],
            [
                [
                    -1.59195,
                    0.33871,
                    -0.10171
                ],
                [
                    0.43223,
                    -2.25262,
                    0.68729
                ],
                [
                    -0.1293,
                    0.60966,
                    -1.92523
                ]
            ],
            [
                [
                    -1.59189,
                    -0.33869,
                    -0.10165
                ],
                [
                    -0.43223,
                    -2.25262,
                    -0.68729
                ],
                [
                    -0.12947,
                    -0.60973,
                    -1.92532
                ]
            ],
            [
                [
                    -2.47015,
                    -0.65085,
                    -0.40625
                ],
                [
                    -0.57354,
                    -2.15261,
                    -0.03248
                ],
                [
                    -0.31275,
                    -0.06282,
                    -1.46676
                ]
            ],
            [
                [
                    -2.47017,
                    0.65084,
                    -0.40621
                ],
                [
                    0.57354,
                    -2.15261,
                    0.03248
                ],
                [
                    -0.31295,
                    0.06287,
                    -1.46681
                ]
            ],
            [
                [
                    -2.47017,
                    -0.65084,
                    -0.40621
                ],
                [
                    -0.5735,
                    -2.15256,
                    -0.03248
                ],
                [
                    -0.31295,
                    -0.06287,
                    -1.46681
                ]
            ],
            [
                [
                    -2.47015,
                    0.65085,
                    -0.40625
                ],
                [
                    0.5735,
                    -2.15256,
                    0.03248
                ],
                [
                    -0.31275,
                    0.06282,
                    -1.46676
                ]
            ],
            [
                [
                    -1.76219,
                    -0.21934,
                    0.29079
                ],
                [
                    -0.20926,
                    -1.54929,
                    -0.22998
                ],
                [
                    0.14615,
                    -0.38819,
                    -3.10125
                ]
            ],
            [
                [
                    -1.76214,
                    0.21942,
                    0.29064
                ],
                [
                    0.20926,
                    -1.54929,
                    0.22998
                ],
                [
                    0.14621,
                    0.38804,
                    -3.10126
                ]
            ],
            [
                [
                    -1.76214,
                    -0.21942,
                    0.29064
                ],
                [
                    -0.20924,
                    -1.54926,
                    -0.22991
                ],
                [
                    0.14621,
                    -0.38804,
                    -3.10126
                ]
            ],
            [
                [
                    -1.76219,
                    0.21934,
                    0.29079
                ],
                [
                    0.20924,
                    -1.54926,
                    0.22991
                ],
                [
                    0.14615,
                    0.38819,
                    -3.10125
                ]
            ],
            [
                [
                    -2.2012,
                    0.44696,
                    0.54934
                ],
                [
                    0.43973,
                    -1.83421,
                    0.25266
                ],
                [
                    0.52698,
                    0.29425,
                    -2.412
                ]
            ],
            [
                [
                    -2.20121,
                    -0.44693,
                    0.54922
                ],
                [
                    -0.43973,
                    -1.83421,
                    -0.25266
                ],
                [
                    0.52719,
                    -0.29434,
                    -2.41211
                ]
            ],
            [
                [
                    -2.20121,
                    0.44693,
                    0.54922
                ],
                [
                    0.43974,
                    -1.83422,
                    0.25265
                ],
                [
                    0.52719,
                    0.29434,
                    -2.41211
                ]
            ],
            [
                [
                    -2.2012,
                    -0.44696,
                    0.54934
                ],
                [
                    -0.43974,
                    -1.83422,
                    -0.25265
                ],
                [
                    0.52698,
                    -0.29425,
                    -2.412
                ]
            ]
        ]
    },
    "band_gap": 4.7673000000000005,
    "is_direct": false,
    "formula": "BaSc2Si3O10"
}