{
    "mp_id": "mp-18803",
    "nelements": 3,
    "nsites": 14,
    "elements": [
        "Na",
        "O",
        "W"
    ],
    "structure": {
        "@module": "pymatgen.core.structure",
        "@class": "Structure",
        "charge": null,
        "lattice": {
            "matrix": [
                [
                    0.0,
                    4.51765887,
                    4.51765887
                ],
                [
                    4.51765887,
                    0.0,
                    4.51765887
                ],
                [
                    4.51765887,
                    4.51765887,
                    0.0
                ]
            ],
            "a": 6.388934444129111,
            "b": 6.388934444129111,
            "c": 6.388934444129111,
            "alpha": 60.00000000000001,
            "beta": 60.00000000000001,
            "gamma": 60.00000000000001,
            "volume": 184.4039832819531
        },
        "sites": [
            {
                "species": [
                    {
                        "element": "Na",
                        "occu": 1
                    }
                ],
                "abc": [
                    0.625,
                    0.625,
                    0.625
                ],
                "xyz": [
                    5.6470735874999995,
                    5.6470735874999995,
                    5.6470735874999995
                ],
                "label": "Na",
                "properties": {}
            },
            {
                "species": [
                    {
                        "element": "Na",
                        "occu": 1
                    }
                ],
                "abc": [
                    0.125,
                    0.625,
                    0.625
                ],
                "xyz": [
                    5.6470735874999995,
                    3.3882441524999996,
                    3.3882441524999996
                ],
                "label": "Na",
                "properties": {}
            },
            {
                "species": [
                    {
                        "element": "Na",
                        "occu": 1
                    }
                ],
                "abc": [
                    0.625,
                    0.625,
                    0.125
                ],
                "xyz": [
                    3.3882441524999996,
                    3.3882441524999996,
                    5.6470735874999995
                ],
                "label": "Na",
                "properties": {}
            },
            {
                "species": [
                    {
                        "element": "Na",
                        "occu": 1
                    }
                ],
                "abc": [
                    0.625,
                    0.125,
                    0.625
                ],
                "xyz": [
                    3.3882441524999996,
                    5.6470735874999995,
                    3.3882441524999996
                ],
                "label": "Na",
                "properties": {}
            },
            {
                "species": [
                    {
                        "element": "W",
                        "occu": 1
                    }
                ],
                "abc": [
                    0.0,
                    0.0,
                    0.0
                ],
                "xyz": [
                    0.0,
                    0.0,
                    0.0
                ],
                "label": "W",
                "properties": {}
            },
            {
                "species": [
                    {
                        "element": "W",
                        "occu": 1
                    }
                ],
                "abc": [
                    0.25,
                    0.25,
                    0.25
                ],
                "xyz": [
                    2.258829435,
                    2.258829435,
                    2.258829435
                ],
                "label": "W",
                "properties": {}
            },
            {
                "species": [
                    {
                        "element": "O",
                        "occu": 1
                    }
                ],
                "abc": [
                    0.36469066,
                    0.90592702,
                    0.36469066
                ],
                "xyz": [
                    5.740217232430822,
                    3.2950959899103083,
                    5.740217232430822
                ],
                "label": "O",
                "properties": {}
            },
            {
                "species": [
                    {
                        "element": "O",
                        "occu": 1
                    }
                ],
                "abc": [
                    0.88530934,
                    0.88530934,
                    0.34407298
                ],
                "xyz": [
                    5.553929942569178,
                    5.553929942569178,
                    7.999051185089691
                ],
                "label": "O",
                "properties": {}
            },
            {
                "species": [
                    {
                        "element": "O",
                        "occu": 1
                    }
                ],
                "abc": [
                    0.88530934,
                    0.88530934,
                    0.88530934
                ],
                "xyz": [
                    7.999051185089691,
                    7.999051185089691,
                    7.999051185089691
                ],
                "label": "O",
                "properties": {}
            },
            {
                "species": [
                    {
                        "element": "O",
                        "occu": 1
                    }
                ],
                "abc": [
                    0.34407298,
                    0.88530934,
                    0.88530934
                ],
                "xyz": [
                    7.999051185089691,
                    5.553929942569178,
                    5.553929942569178
                ],
                "label": "O",
                "properties": {}
            },
            {
                "species": [
                    {
                        "element": "O",
                        "occu": 1
                    }
                ],
                "abc": [
                    0.36469066,
                    0.36469066,
                    0.36469066
                ],
                "xyz": [
                    3.2950959899103083,
                    3.2950959899103083,
                    3.2950959899103083
                ],
                "label": "O",
                "properties": {}
            },
            {
                "species": [
                    {
                        "element": "O",
                        "occu": 1
                    }
                ],
                "abc": [
                    0.90592702,
                    0.36469066,
                    0.36469066
                ],
                "xyz": [
                    3.2950959899103083,
                    5.740217232430822,
                    5.740217232430822
                ],
                "label": "O",
                "properties": {}
            },
            {
                "species": [
                    {
                        "element": "O",
                        "occu": 1
                    }
                ],
                "abc": [
                    0.88530934,
                    0.34407298,
                    0.88530934
                ],
                "xyz": [
                    5.553929942569178,
                    7.999051185089691,
                    5.553929942569178
                ],
                "label": "O",
                "properties": {}
            },
            {
                "species": [
                    {
                        "element": "O",
                        "occu": 1
                    }
                ],
                "abc": [
                    0.36469066,
                    0.36469066,
                    0.90592702
                ],
                "xyz": [
                    5.740217232430822,
                    5.740217232430822,
                    3.2950959899103083
                ],
                "label": "O",
                "properties": {}
            }
        ]
    },
    "spacegroup": {
        "source": "spglib",
        "symbol": "Fd-3m",
        "number": 227,
        "point_group": "m-3m",
        "crystal_system": "cubic",
        "hall": "F 4d 2 3 -1d"
    },
    "dielectric": {
        "epsilon_ionic": [
            [
                2.99223102,
                0.0,
                0.0
            ],
            [
                0.0,
                2.99164934,
                -2e-08
            ],
            [
                0.0,
                -2e-08,
                2.99036399
            ]
        ],
        "epsilon_ionic_avg": 2.991414783333333,
        "epsilon_ionic_eig": [
            2.9903639899996888,
            2.9916493400003112,
            2.99223102
        ],
        "epsilon_electronic": [
            [
                2.82032547,
                0.0,
                -0.0
            ],
            [
                0.0,
                2.82032547,
                -0.0
            ],
            [
                0.0,
                0.0,
                2.82032547
            ]
        ],
        "epsilon_electronic_avg": 2.82032547,
        "epsilon_electronic_eig": [
            2.82032547,
            2.82032547,
            2.82032547
        ]
    },
    "phonon": {
        "lowest_freq": -0.0262150790010213,
        "frequency": [
            -0.0262150790010213,
            -0.0262150790010213,
            -0.0262150790010213,
            2.744733017617577,
            2.744733017617577,
            2.744733017617577,
            3.7592282650834568,
            3.7592282650834568,
            3.7592282650834568,
            4.970467733112181,
            4.970467733112181,
            4.970467733112181,
            5.246398659258818,
            5.246398659258818,
            5.246398659258818,
            6.0564291264411105,
            6.0564291264411105,
            6.786621363863897,
            6.786621363863897,
            6.786621363863897,
            7.370813873209998,
            7.370813873209998,
            7.370813873209998,
            8.511540613844895,
            8.511540613844895,
            8.511540613844895,
            8.61448510256876,
            9.023626147494756,
            9.023626147494756,
            10.997224818173644,
            10.997224818173644,
            10.997224818173644,
            11.326260547085234,
            11.326260547085234,
            23.313188798684187,
            23.313188798684187,
            23.313188798684187,
            23.850327643154063,
            23.850327643154063,
            23.850327643154063,
            26.263095005516305,
            26.420177792038
        ]
    },
    "born_effective_charge": {
        "avg_abs_trace": 1.611944761904762,
        "tensors": [
            [
                [
                    1.21296,
                    -0.23217,
                    -0.23217
                ],
                [
                    -0.23215,
                    1.21281,
                    -0.23215
                ],
                [
                    -0.23213,
                    -0.23213,
                    1.21254
                ]
            ],
            [
                [
                    1.21296,
                    0.23217,
                    0.23217
                ],
                [
                    0.23215,
                    1.21281,
                    -0.23215
                ],
                [
                    0.23213,
                    -0.23213,
                    1.21254
                ]
            ],
            [
                [
                    1.21296,
                    -0.23217,
                    0.23217
                ],
                [
                    -0.23215,
                    1.21281,
                    0.23215
                ],
                [
                    0.23213,
                    0.23213,
                    1.21254
                ]
            ],
            [
                [
                    1.21296,
                    0.23217,
                    -0.23217
                ],
                [
                    0.23215,
                    1.21281,
                    0.23215
                ],
                [
                    -0.23213,
                    0.23213,
                    1.21254
                ]
            ],
            [
                [
                    3.21639,
                    0.0,
                    0.0
                ],
                [
                    0.0,
                    3.21641,
                    -0.0
                ],
                [
                    0.0,
                    0.0,
                    3.216
                ]
            ],
            [
                [
                    3.21639,
                    0.0,
                    0.0
                ],
                [
                    0.0,
                    3.21641,
                    -0.0
                ],
                [
                    0.0,
                    0.0,
                    3.216
                ]
            ],
            [
                [
                    -1.41062,
                    0.53679,
                    -0.53679
                ],
                [
                    0.53676,
                    -1.41061,
                    0.53676
                ],
                [
                    -0.53707,
                    0.53707,
                    -1.41013
                ]
            ],
            [
                [
                    -1.41053,
                    -0.53677,
                    0.53677
                ],
                [
                    -0.53676,
                    -1.41061,
                    0.53676
                ],
                [
                    0.53707,
                    0.53707,
                    -1.41013
                ]
            ],
            [
                [
                    -1.41062,
                    -0.53679,
                    -0.53679
                ],
                [
                    -0.53692,
                    -1.41041,
                    -0.53692
                ],
                [
                    -0.53707,
                    -0.53707,
                    -1.41013
                ]
            ],
            [
                [
                    -1.41062,
                    0.53679,
                    0.53679
                ],
                [
                    0.53676,
                    -1.41061,
                    -0.53676
                ],
                [
                    0.53694,
                    -0.53694,
                    -1.41041
                ]
            ],
            [
                [
                    -1.41053,
                    -0.53677,
                    -0.53677
                ],
                [
                    -0.53676,
                    -1.41061,
                    -0.53676
                ],
                [
                    -0.53694,
                    -0.53694,
                    -1.41041
                ]
            ],
            [
                [
                    -1.41053,
                    0.53677,
                    0.53677
                ],
                [
                    0.53692,
                    -1.41041,
                    -0.53692
                ],
                [
                    0.53707,
                    -0.53707,
                    -1.41013
                ]
            ],
            [
                [
                    -1.41053,
                    0.53677,
                    -0.53677
                ],
                [
                    0.53692,
                    -1.41041,
                    0.53692
                ],
                [
                    -0.53694,
                    0.53694,
                    -1.41041
                ]
            ],
            [
                [
                    -1.41062,
                    -0.53679,
                    0.53679
                ],
                [
                    -0.53692,
                    -1.41041,
                    0.53692
                ],
                [
                    0.53694,
                    0.53694,
                    -1.41041
                ]
            ]
        ]
    },
    "band_gap": 5.0438,
    "is_direct": true,
    "formula": "Na2WO4"
}