{
    "mp_id": "mp-13133",
    "nelements": 3,
    "nsites": 12,
    "elements": [
        "K",
        "O",
        "Ti"
    ],
    "structure": {
        "@module": "pymatgen.core.structure",
        "@class": "Structure",
        "charge": null,
        "lattice": {
            "matrix": [
                [
                    5.07361625,
                    -3.49931274,
                    0.0
                ],
                [
                    5.07361625,
                    3.49931274,
                    0.0
                ],
                [
                    0.0,
                    0.0,
                    5.53216206
                ]
            ],
            "a": 6.163340936909978,
            "b": 6.163340936909978,
            "c": 5.53216206,
            "alpha": 90.0,
            "beta": 90.0,
            "gamma": 69.18866472368552,
            "volume": 196.4378911568464
        },
        "sites": [
            {
                "species": [
                    {
                        "element": "K",
                        "occu": 1
                    }
                ],
                "abc": [
                    0.18897603,
                    0.48528501,
                    0.25
                ],
                "xyz": [
                    3.4209417692859,
                    1.0368777886904055,
                    1.383040515
                ],
                "label": "K",
                "properties": {}
            },
            {
                "species": [
                    {
                        "element": "K",
                        "occu": 1
                    }
                ],
                "abc": [
                    0.51471499,
                    0.81102397,
                    0.25
                ],
                "xyz": [
                    6.7262907307140996,
                    1.0368777886904057,
                    1.383040515
                ],
                "label": "K",
                "properties": {}
            },
            {
                "species": [
                    {
                        "element": "K",
                        "occu": 1
                    }
                ],
                "abc": [
                    0.81102397,
                    0.51471499,
                    0.75
                ],
                "xyz": [
                    6.7262907307140996,
                    -1.0368777886904057,
                    4.149121545
                ],
                "label": "K",
                "properties": {}
            },
            {
                "species": [
                    {
                        "element": "K",
                        "occu": 1
                    }
                ],
                "abc": [
                    0.48528501,
                    0.18897603,
                    0.75
                ],
                "xyz": [
                    3.4209417692859,
                    -1.0368777886904055,
                    4.149121545
                ],
                "label": "K",
                "properties": {}
            },
            {
                "species": [
                    {
                        "element": "Ti",
                        "occu": 1
                    }
                ],
                "abc": [
                    0.08410623,
                    0.91589377,
                    0.75
                ],
                "xyz": [
                    5.073616250000001,
                    2.9106847356952597,
                    4.149121545
                ],
                "label": "Ti",
                "properties": {}
            },
            {
                "species": [
                    {
                        "element": "Ti",
                        "occu": 1
                    }
                ],
                "abc": [
                    0.91589377,
                    0.08410623,
                    0.25
                ],
                "xyz": [
                    5.073616250000001,
                    -2.9106847356952597,
                    1.383040515
                ],
                "label": "Ti",
                "properties": {}
            },
            {
                "species": [
                    {
                        "element": "O",
                        "occu": 1
                    }
                ],
                "abc": [
                    0.34216574,
                    0.65783426,
                    0.75
                ],
                "xyz": [
                    5.07361625,
                    1.104622873652945,
                    4.149121545
                ],
                "label": "O",
                "properties": {}
            },
            {
                "species": [
                    {
                        "element": "O",
                        "occu": 1
                    }
                ],
                "abc": [
                    0.65783426,
                    0.34216574,
                    0.25
                ],
                "xyz": [
                    5.07361625,
                    -1.104622873652945,
                    1.383040515
                ],
                "label": "O",
                "properties": {}
            },
            {
                "species": [
                    {
                        "element": "O",
                        "occu": 1
                    }
                ],
                "abc": [
                    0.1274126,
                    0.1274126,
                    0.5
                ],
                "xyz": [
                    1.2928852756294997,
                    0.0,
                    2.76608103
                ],
                "label": "O",
                "properties": {}
            },
            {
                "species": [
                    {
                        "element": "O",
                        "occu": 1
                    }
                ],
                "abc": [
                    0.8725874,
                    0.8725874,
                    0.0
                ],
                "xyz": [
                    8.8543472243705,
                    0.0,
                    0.0
                ],
                "label": "O",
                "properties": {}
            },
            {
                "species": [
                    {
                        "element": "O",
                        "occu": 1
                    }
                ],
                "abc": [
                    0.1274126,
                    0.1274126,
                    0.0
                ],
                "xyz": [
                    1.2928852756294997,
                    0.0,
                    0.0
                ],
                "label": "O",
                "properties": {}
            },
            {
                "species": [
                    {
                        "element": "O",
                        "occu": 1
                    }
                ],
                "abc": [
                    0.8725874,
                    0.8725874,
                    0.5
                ],
                "xyz": [
                    8.8543472243705,
                    0.0,
                    2.76608103
                ],
                "label": "O",
                "properties": {}
            }
        ]
    },
    "spacegroup": {
        "source": "spglib",
        "symbol": "Cmcm",
        "number": 63,
        "point_group": "mmm",
        "crystal_system": "orthorhombic",
        "hall": "-C 2c 2"
    },
    "dielectric": {
        "epsilon_ionic": [
            [
                4.34085358,
                0.0,
                1e-08
            ],
            [
                0.0,
                4.04116601,
                -0.0
            ],
            [
                1e-08,
                -0.0,
                96.63670756
            ]
        ],
        "epsilon_ionic_avg": 35.00624238333334,
        "epsilon_ionic_eig": [
            4.340853580000001,
            96.63670756,
            4.04116601
        ],
        "epsilon_electronic": [
            [
                2.98038618,
                0.0,
                0.0
            ],
            [
                0.0,
                3.25210123,
                -0.0
            ],
            [
                0.0,
                0.0,
                3.76484607
            ]
        ],
        "epsilon_electronic_avg": 3.3324444933333335,
        "epsilon_electronic_eig": [
            2.98038618,
            3.25210123,
            3.76484607
        ]
    },
    "phonon": {
        "lowest_freq": -0.05008675577768925,
        "frequency": [
            -0.05008675577768925,
            -0.013335768623276519,
            -0.01288038465831779,
            0.6309747412322492,
            2.742717913277612,
            2.9140506462969804,
            3.273156046906676,
            3.947153075674319,
            3.9638180526732714,
            3.967359624294596,
            4.174909594194955,
            4.1813618113306115,
            4.2685767079889265,
            4.269341242915081,
            4.348184936726474,
            5.214177116729446,
            5.240873942952322,
            5.393629117566254,
            6.040518603075939,
            6.953819538141628,
            7.488067838019742,
            8.020243819087883,
            9.01662110441576,
            9.57393707284512,
            11.336203380357443,
            12.304983732646743,
            12.44618622020639,
            12.660595847572553,
            12.723103433313192,
            15.917470193859772,
            17.85128031083376,
            17.909489687518256,
            18.133578141297512,
            19.855558873915008,
            22.611288754899405,
            24.09890662854207
        ]
    },
    "born_effective_charge": {
        "avg_abs_trace": 2.0065194444444443,
        "tensors": [
            [
                [
                    1.29014,
                    0.21244,
                    0.0
                ],
                [
                    0.11906,
                    1.30036,
                    -0.0
                ],
                [
                    -3e-05,
                    -4e-05,
                    1.09304
                ]
            ],
            [
                [
                    1.29032,
                    -0.21249,
                    0.0
                ],
                [
                    -0.11906,
                    1.30036,
                    -0.0
                ],
                [
                    3e-05,
                    -4e-05,
                    1.09304
                ]
            ],
            [
                [
                    1.29032,
                    0.21249,
                    0.0
                ],
                [
                    0.11912,
                    1.30043,
                    0.0
                ],
                [
                    3e-05,
                    4e-05,
                    1.09304
                ]
            ],
            [
                [
                    1.29014,
                    -0.21244,
                    0.0
                ],
                [
                    -0.11912,
                    1.30043,
                    0.0
                ],
                [
                    -3e-05,
                    4e-05,
                    1.09304
                ]
            ],
            [
                [
                    2.36015,
                    -0.0003,
                    0.0
                ],
                [
                    0.0,
                    2.99032,
                    0.0
                ],
                [
                    -0.0,
                    -0.0002,
                    5.34096
                ]
            ],
            [
                [
                    2.36015,
                    0.0003,
                    0.0
                ],
                [
                    0.0,
                    2.99014,
                    0.0
                ],
                [
                    -0.0,
                    0.0002,
                    5.34096
                ]
            ],
            [
                [
                    -1.11825,
                    -8e-05,
                    0.0
                ],
                [
                    0.0,
                    -3.25124,
                    0.0
                ],
                [
                    -0.0,
                    7e-05,
                    -1.17514
                ]
            ],
            [
                [
                    -1.11825,
                    8e-05,
                    0.0
                ],
                [
                    0.0,
                    -3.2511,
                    0.0
                ],
                [
                    -0.0,
                    -7e-05,
                    -1.17514
                ]
            ],
            [
                [
                    -1.911,
                    -0.0,
                    0.0
                ],
                [
                    -8e-05,
                    -1.16993,
                    0.51307
                ],
                [
                    0.00026,
                    0.90571,
                    -3.17595
                ]
            ],
            [
                [
                    -1.91136,
                    -0.0,
                    0.0
                ],
                [
                    8e-05,
                    -1.16993,
                    -0.51307
                ],
                [
                    -0.00026,
                    -0.90571,
                    -3.17595
                ]
            ],
            [
                [
                    -1.911,
                    -0.0,
                    0.0
                ],
                [
                    -8e-05,
                    -1.16993,
                    -0.51307
                ],
                [
                    0.00026,
                    -0.90571,
                    -3.17595
                ]
            ],
            [
                [
                    -1.91136,
                    -0.0,
                    0.0
                ],
                [
                    8e-05,
                    -1.16993,
                    0.51307
                ],
                [
                    -0.00026,
                    0.90571,
                    -3.17595
                ]
            ]
        ]
    },
    "band_gap": 3.5483000000000002,
    "is_direct": false,
    "formula": "K2TiO3"
}