{
    "mp_id": "mp-18315",
    "nelements": 3,
    "nsites": 30,
    "elements": [
        "Cs",
        "O",
        "Si"
    ],
    "structure": {
        "@module": "pymatgen.core.structure",
        "@class": "Structure",
        "charge": null,
        "lattice": {
            "matrix": [
                [
                    7.08879136,
                    0.0,
                    -0.00394881
                ],
                [
                    0.0,
                    9.49712642,
                    0.0
                ],
                [
                    -7.00177345,
                    0.0,
                    9.58367875
                ]
            ],
            "a": 7.088792459841878,
            "b": 9.49712642,
            "c": 11.868939709524456,
            "alpha": 90.0,
            "beta": 126.18353813900576,
            "gamma": 90.0,
            "volume": 644.9408371573023
        },
        "sites": [
            {
                "species": [
                    {
                        "element": "Cs",
                        "occu": 1
                    }
                ],
                "abc": [
                    0.48257047,
                    0.64579517,
                    0.59578948
                ],
                "xyz": [
                    -0.7507415845261662,
                    6.133198370915392,
                    5.707949399851909
                ],
                "label": "Cs",
                "properties": {}
            },
            {
                "species": [
                    {
                        "element": "Cs",
                        "occu": 1
                    }
                ],
                "abc": [
                    0.48257047,
                    0.85420483,
                    0.09578948
                ],
                "xyz": [
                    2.7501451404738333,
                    8.11249125908461,
                    0.9161100248519094
                ],
                "label": "Cs",
                "properties": {}
            },
            {
                "species": [
                    {
                        "element": "Cs",
                        "occu": 1
                    }
                ],
                "abc": [
                    0.51742953,
                    0.35420483,
                    0.40421052
                ],
                "xyz": [
                    0.8377594945261668,
                    3.3639280490846093,
                    3.871780540148091
                ],
                "label": "Cs",
                "properties": {}
            },
            {
                "species": [
                    {
                        "element": "Cs",
                        "occu": 1
                    }
                ],
                "abc": [
                    0.29347165,
                    0.02608911,
                    0.54433671
                ],
                "xyz": [
                    -1.7309630270134053,
                    0.2477715758552862,
                    5.215589296685676
                ],
                "label": "Cs",
                "properties": {}
            },
            {
                "species": [
                    {
                        "element": "Cs",
                        "occu": 1
                    }
                ],
                "abc": [
                    0.70652835,
                    0.52608911,
                    0.95566329
                ],
                "xyz": [
                    -1.682905787986595,
                    4.996334785855287,
                    9.155980018314326
                ],
                "label": "Cs",
                "properties": {}
            },
            {
                "species": [
                    {
                        "element": "Cs",
                        "occu": 1
                    }
                ],
                "abc": [
                    0.70652835,
                    0.97391089,
                    0.45566329
                ],
                "xyz": [
                    1.817980937013406,
                    9.249354844144714,
                    4.364140643314324
                ],
                "label": "Cs",
                "properties": {}
            },
            {
                "species": [
                    {
                        "element": "Cs",
                        "occu": 1
                    }
                ],
                "abc": [
                    0.29347165,
                    0.47391089,
                    0.04433671
                ],
                "xyz": [
                    1.7699236979865942,
                    4.500791634144714,
                    0.42374992168567605
                ],
                "label": "Cs",
                "properties": {}
            },
            {
                "species": [
                    {
                        "element": "Cs",
                        "occu": 1
                    }
                ],
                "abc": [
                    0.11539248,
                    0.72535284,
                    0.72734261
                ],
                "xyz": [
                    -4.274694960518731,
                    6.888767620586034,
                    6.970162252447589
                ],
                "label": "Cs",
                "properties": {}
            },
            {
                "species": [
                    {
                        "element": "Cs",
                        "occu": 1
                    }
                ],
                "abc": [
                    0.88460752,
                    0.22535284,
                    0.77265739
                ],
                "xyz": [
                    0.8608261455187316,
                    2.140204410586033,
                    7.401407062552412
                ],
                "label": "Cs",
                "properties": {}
            },
            {
                "species": [
                    {
                        "element": "Cs",
                        "occu": 1
                    }
                ],
                "abc": [
                    0.88460752,
                    0.27464716,
                    0.27265739
                ],
                "xyz": [
                    4.361712870518732,
                    2.6083587994139674,
                    2.6095676875524116
                ],
                "label": "Cs",
                "properties": {}
            },
            {
                "species": [
                    {
                        "element": "Cs",
                        "occu": 1
                    }
                ],
                "abc": [
                    0.11539248,
                    0.77464716,
                    0.22734261
                ],
                "xyz": [
                    -0.7738082355187316,
                    7.356922009413967,
                    2.178322877447589
                ],
                "label": "Cs",
                "properties": {}
            },
            {
                "species": [
                    {
                        "element": "Cs",
                        "occu": 1
                    }
                ],
                "abc": [
                    0.51742953,
                    0.14579517,
                    0.90421052
                ],
                "xyz": [
                    -2.6631272304738336,
                    1.3846351609153915,
                    8.663619915148091
                ],
                "label": "Cs",
                "properties": {}
            },
            {
                "species": [
                    {
                        "element": "Si",
                        "occu": 1
                    }
                ],
                "abc": [
                    0.16112376,
                    0.3711118,
                    0.62005579
                ],
                "xyz": [
                    -3.199317450162062,
                    3.5244956805537564,
                    5.941779251322738
                ],
                "label": "Si",
                "properties": {}
            },
            {
                "species": [
                    {
                        "element": "Si",
                        "occu": 1
                    }
                ],
                "abc": [
                    0.16112376,
                    0.1288882,
                    0.12005579
                ],
                "xyz": [
                    0.30156927483793805,
                    1.2240675294462442,
                    1.1499398763227369
                ],
                "label": "Si",
                "properties": {}
            },
            {
                "species": [
                    {
                        "element": "Si",
                        "occu": 1
                    }
                ],
                "abc": [
                    0.83887624,
                    0.6288882,
                    0.37994421
                ],
                "xyz": [
                    3.286335360162062,
                    5.972630739446244,
                    3.6379506886772632
                ],
                "label": "Si",
                "properties": {}
            },
            {
                "species": [
                    {
                        "element": "Si",
                        "occu": 1
                    }
                ],
                "abc": [
                    0.83887624,
                    0.8711118,
                    0.87994421
                ],
                "xyz": [
                    -0.2145513648379378,
                    8.273058890553756,
                    8.429790063677265
                ],
                "label": "Si",
                "properties": {}
            },
            {
                "species": [
                    {
                        "element": "O",
                        "occu": 1
                    }
                ],
                "abc": [
                    0.00352076,
                    0.72889631,
                    0.9362598
                ],
                "xyz": [
                    -6.5305210768736766,
                    6.922420403141511,
                    8.972799246926956
                ],
                "label": "O",
                "properties": {}
            },
            {
                "species": [
                    {
                        "element": "O",
                        "occu": 1
                    }
                ],
                "abc": [
                    0.0,
                    0.0,
                    0.0
                ],
                "xyz": [
                    0.0,
                    0.0,
                    0.0
                ],
                "label": "O",
                "properties": {}
            },
            {
                "species": [
                    {
                        "element": "O",
                        "occu": 1
                    }
                ],
                "abc": [
                    0.0,
                    0.5,
                    0.5
                ],
                "xyz": [
                    -3.500886725,
                    4.74856321,
                    4.791839375
                ],
                "label": "O",
                "properties": {}
            },
            {
                "species": [
                    {
                        "element": "O",
                        "occu": 1
                    }
                ],
                "abc": [
                    0.2227772,
                    0.0756368,
                    0.27015282
                ],
                "xyz": [
                    -0.31232775195363693,
                    0.7183322516042561,
                    2.5881781354514435
                ],
                "label": "O",
                "properties": {}
            },
            {
                "species": [
                    {
                        "element": "O",
                        "occu": 1
                    }
                ],
                "abc": [
                    0.99647924,
                    0.22889631,
                    0.5637402
                ],
                "xyz": [
                    3.1166522618736763,
                    2.1738571931415103,
                    5.398770068073046
                ],
                "label": "O",
                "properties": {}
            },
            {
                "species": [
                    {
                        "element": "O",
                        "occu": 1
                    }
                ],
                "abc": [
                    0.99647924,
                    0.27110369,
                    0.0637402
                ],
                "xyz": [
                    6.617538986873677,
                    2.57470601685849,
                    0.6069306930730456
                ],
                "label": "O",
                "properties": {}
            },
            {
                "species": [
                    {
                        "element": "O",
                        "occu": 1
                    }
                ],
                "abc": [
                    0.00352076,
                    0.77110369,
                    0.4362598
                ],
                "xyz": [
                    -3.029634351873676,
                    7.32326922685849,
                    4.180959871926955
                ],
                "label": "O",
                "properties": {}
            },
            {
                "species": [
                    {
                        "element": "O",
                        "occu": 1
                    }
                ],
                "abc": [
                    0.39816473,
                    0.34635427,
                    0.62738121
                ],
                "xyz": [
                    -1.570274401326142,
                    3.289370288296814,
                    6.011047693558816
                ],
                "label": "O",
                "properties": {}
            },
            {
                "species": [
                    {
                        "element": "O",
                        "occu": 1
                    }
                ],
                "abc": [
                    0.60183527,
                    0.84635427,
                    0.87261879
                ],
                "xyz": [
                    -1.8435944136738573,
                    8.037933498296814,
                    8.360521621441185
                ],
                "label": "O",
                "properties": {}
            },
            {
                "species": [
                    {
                        "element": "O",
                        "occu": 1
                    }
                ],
                "abc": [
                    0.60183527,
                    0.65364573,
                    0.37261879
                ],
                "xyz": [
                    1.6572923113261422,
                    6.207756131703188,
                    3.568682246441184
                ],
                "label": "O",
                "properties": {}
            },
            {
                "species": [
                    {
                        "element": "O",
                        "occu": 1
                    }
                ],
                "abc": [
                    0.39816473,
                    0.15364573,
                    0.12738121
                ],
                "xyz": [
                    1.9306123236738584,
                    1.4591929217031867,
                    1.2192083185588163
                ],
                "label": "O",
                "properties": {}
            },
            {
                "species": [
                    {
                        "element": "O",
                        "occu": 1
                    }
                ],
                "abc": [
                    0.2227772,
                    0.4243632,
                    0.77015282
                ],
                "xyz": [
                    -3.813214476953636,
                    4.0302309583957445,
                    7.380017510451443
                ],
                "label": "O",
                "properties": {}
            },
            {
                "species": [
                    {
                        "element": "O",
                        "occu": 1
                    }
                ],
                "abc": [
                    0.7772228,
                    0.9243632,
                    0.72984718
                ],
                "xyz": [
                    0.3993456619536362,
                    8.778794168395745,
                    6.991551804548558
                ],
                "label": "O",
                "properties": {}
            },
            {
                "species": [
                    {
                        "element": "O",
                        "occu": 1
                    }
                ],
                "abc": [
                    0.7772228,
                    0.5756368,
                    0.22984718
                ],
                "xyz": [
                    3.9002323869536366,
                    5.466895461604256,
                    2.1997124295485575
                ],
                "label": "O",
                "properties": {}
            }
        ]
    },
    "spacegroup": {
        "source": "spglib",
        "symbol": "P2_1/c",
        "number": 14,
        "point_group": "2/m",
        "crystal_system": "monoclinic",
        "hall": "-P 2ybc"
    },
    "dielectric": {
        "epsilon_ionic": [
            [
                7.68483439,
                -1e-08,
                -2.98651394
            ],
            [
                -1e-08,
                6.04270866,
                0.0
            ],
            [
                -2.98651394,
                0.0,
                12.46054135
            ]
        ],
        "epsilon_ionic_avg": 8.729361466666669,
        "epsilon_ionic_eig": [
            13.896443844923406,
            6.248931895076599,
            6.042708659999999
        ],
        "epsilon_electronic": [
            [
                3.18932875,
                0.0,
                0.01644
            ],
            [
                0.0,
                3.23050167,
                0.0
            ],
            [
                0.01643733,
                0.0,
                3.17907272
            ]
        ],
        "epsilon_electronic_avg": 3.1996343800000004,
        "epsilon_electronic_eig": [
            3.201420672370392,
            3.1669807976296083,
            3.23050167
        ]
    },
    "phonon": {
        "lowest_freq": -0.1595571656215837,
        "frequency": [
            -0.1595571656215837,
            -0.15448039085165183,
            -0.06473416202374768,
            0.9238507283686879,
            1.1827176929390584,
            1.183059333714803,
            1.2526105207080582,
            1.3123859247997407,
            1.323173786876638,
            1.3408233822204458,
            1.404427886760894,
            1.6906703745590947,
            1.700329908760548,
            1.7615396997548693,
            1.7785041519170743,
            1.847978700307011,
            1.853857931636535,
            1.9615416570811732,
            1.9826996447924654,
            2.008399100411927,
            2.042144377598474,
            2.0833626223481394,
            2.0883203675104274,
            2.18179676124971,
            2.2756968840587826,
            2.371708286078955,
            2.3896074349573566,
            2.401265828574218,
            2.4983102245557673,
            2.5050397849826074,
            2.6033637264738485,
            2.764863994463835,
            2.7885000264776245,
            2.8527738587630966,
            2.853705165236921,
            2.896607597725503,
            3.0326171016350782,
            3.1314330594712034,
            3.1314848668904114,
            3.274159633050152,
            3.478302259181638,
            3.4786414079489205,
            3.765599329745818,
            3.9807263035295417,
            3.9831042286984313,
            4.146239552454031,
            4.2053454087930096,
            4.390545044865312,
            4.4938946001640705,
            4.837732871735864,
            4.911187436560455,
            5.199069213313749,
            5.297055964994152,
            5.31993158629701,
            7.838089968779218,
            8.064365397577065,
            8.093373430361305,
            8.512582953315242,
            8.705613027530845,
            8.825482684201587,
            9.75180755622572,
            9.787635260659556,
            10.147152105552344,
            10.262701460911108,
            12.666748120214677,
            12.718096550611977,
            13.014960337203574,
            13.106566239230151,
            13.256387131463919,
            13.413260293374016,
            13.477930476024925,
            13.622202906175275,
            13.896188080137488,
            14.063276904474034,
            16.921011330692984,
            17.213278229032575,
            22.967338458515133,
            22.9905163408913,
            24.761974141349352,
            24.805502753241647,
            26.019279596831606,
            26.055825168922862,
            26.070813072199954,
            26.081922783436774,
            26.208250497835454,
            26.249681587135605,
            26.322430265737474,
            26.728783340640646,
            26.72961782792447,
            26.912898030530403
        ]
    },
    "born_effective_charge": {
        "avg_abs_trace": 1.854383555555556,
        "tensors": [
            [
                [
                    1.44194,
                    0.14762,
                    0.09255
                ],
                [
                    0.16125,
                    1.4428,
                    0.092
                ],
                [
                    0.09937,
                    0.07885,
                    1.22439
                ]
            ],
            [
                [
                    1.44194,
                    -0.14762,
                    0.09255
                ],
                [
                    -0.16142,
                    1.44271,
                    -0.09207
                ],
                [
                    0.09937,
                    -0.07885,
                    1.22439
                ]
            ],
            [
                [
                    1.44195,
                    0.14763,
                    0.09262
                ],
                [
                    0.16142,
                    1.44271,
                    0.09207
                ],
                [
                    0.09936,
                    0.07884,
                    1.22434
                ]
            ],
            [
                [
                    1.28396,
                    -0.06547,
                    0.09438
                ],
                [
                    -0.08441,
                    1.55921,
                    0.01377
                ],
                [
                    0.09078,
                    0.00551,
                    1.32413
                ]
            ],
            [
                [
                    1.28398,
                    0.06541,
                    0.09439
                ],
                [
                    0.08441,
                    1.55921,
                    -0.01377
                ],
                [
                    0.09079,
                    -0.00546,
                    1.32409
                ]
            ],
            [
                [
                    1.28398,
                    -0.06541,
                    0.09439
                ],
                [
                    -0.08462,
                    1.55922,
                    0.01375
                ],
                [
                    0.09079,
                    0.00546,
                    1.32409
                ]
            ],
            [
                [
                    1.28396,
                    0.06547,
                    0.09438
                ],
                [
                    0.08462,
                    1.55922,
                    -0.01375
                ],
                [
                    0.09078,
                    -0.00551,
                    1.32413
                ]
            ],
            [
                [
                    1.40616,
                    -0.16258,
                    -0.15589
                ],
                [
                    -0.16211,
                    1.32138,
                    0.09178
                ],
                [
                    -0.18425,
                    0.09221,
                    1.32636
                ]
            ],
            [
                [
                    1.40612,
                    0.1626,
                    -0.15591
                ],
                [
                    0.16211,
                    1.32138,
                    -0.09178
                ],
                [
                    -0.1842,
                    -0.09222,
                    1.32642
                ]
            ],
            [
                [
                    1.40612,
                    -0.1626,
                    -0.15591
                ],
                [
                    -0.1621,
                    1.32144,
                    0.09184
                ],
                [
                    -0.1842,
                    0.09222,
                    1.32642
                ]
            ],
            [
                [
                    1.40616,
                    0.16258,
                    -0.15589
                ],
                [
                    0.1621,
                    1.32144,
                    -0.09184
                ],
                [
                    -0.18425,
                    -0.09221,
                    1.32636
                ]
            ],
            [
                [
                    1.44195,
                    -0.14763,
                    0.09262
                ],
                [
                    -0.16125,
                    1.4428,
                    -0.092
                ],
                [
                    0.09936,
                    -0.07884,
                    1.22434
                ]
            ],
            [
                [
                    2.68973,
                    -0.08731,
                    0.08214
                ],
                [
                    -0.031,
                    2.88139,
                    -0.09936
                ],
                [
                    0.0527,
                    -0.07684,
                    2.96037
                ]
            ],
            [
                [
                    2.68973,
                    0.08731,
                    0.08214
                ],
                [
                    0.03079,
                    2.88148,
                    0.09932
                ],
                [
                    0.0527,
                    0.07684,
                    2.96037
                ]
            ],
            [
                [
                    2.68964,
                    -0.08729,
                    0.0821
                ],
                [
                    -0.03079,
                    2.88148,
                    -0.09932
                ],
                [
                    0.05274,
                    -0.07685,
                    2.96043
                ]
            ],
            [
                [
                    2.68964,
                    0.08729,
                    0.0821
                ],
                [
                    0.031,
                    2.88139,
                    0.09936
                ],
                [
                    0.05274,
                    0.07685,
                    2.96043
                ]
            ],
            [
                [
                    -1.99793,
                    0.2262,
                    -0.1236
                ],
                [
                    0.32161,
                    -2.21742,
                    0.31039
                ],
                [
                    -0.10413,
                    0.23342,
                    -1.7825
                ]
            ],
            [
                [
                    -1.28389,
                    -0.32964,
                    -0.3593
                ],
                [
                    -0.25393,
                    -2.57375,
                    -1.02573
                ],
                [
                    -0.36993,
                    -0.98921,
                    -2.35513
                ]
            ],
            [
                [
                    -1.28389,
                    0.32964,
                    -0.3593
                ],
                [
                    0.25393,
                    -2.57375,
                    1.02573
                ],
                [
                    -0.36993,
                    0.98921,
                    -2.35513
                ]
            ],
            [
                [
                    -1.72944,
                    -0.08171,
                    0.20846
                ],
                [
                    0.00303,
                    -1.88203,
                    0.24205
                ],
                [
                    0.29546,
                    0.27804,
                    -2.31415
                ]
            ],
            [
                [
                    -1.99788,
                    -0.22615,
                    -0.12355
                ],
                [
                    -0.32161,
                    -2.21742,
                    -0.31039
                ],
                [
                    -0.10426,
                    -0.23354,
                    -1.7826
                ]
            ],
            [
                [
                    -1.99788,
                    0.22615,
                    -0.12355
                ],
                [
                    0.32159,
                    -2.21764,
                    0.31039
                ],
                [
                    -0.10426,
                    0.23354,
                    -1.7826
                ]
            ],
            [
                [
                    -1.99793,
                    -0.2262,
                    -0.1236
                ],
                [
                    -0.32159,
                    -2.21764,
                    -0.31039
                ],
                [
                    -0.10413,
                    -0.23342,
                    -1.7825
                ]
            ],
            [
                [
                    -2.45264,
                    0.10794,
                    -0.01834
                ],
                [
                    0.12934,
                    -1.81849,
                    0.02205
                ],
                [
                    -0.06495,
                    0.01521,
                    -1.56099
                ]
            ],
            [
                [
                    -2.45237,
                    -0.1079,
                    -0.01831
                ],
                [
                    -0.12934,
                    -1.81849,
                    -0.02205
                ],
                [
                    -0.06492,
                    -0.01522,
                    -1.56099
                ]
            ],
            [
                [
                    -2.45237,
                    0.1079,
                    -0.01831
                ],
                [
                    0.12913,
                    -1.81831,
                    0.02213
                ],
                [
                    -0.06492,
                    0.01522,
                    -1.56099
                ]
            ],
            [
                [
                    -2.45264,
                    -0.10794,
                    -0.01834
                ],
                [
                    -0.12913,
                    -1.81831,
                    -0.02213
                ],
                [
                    -0.06495,
                    -0.01521,
                    -1.56099
                ]
            ],
            [
                [
                    -1.72944,
                    0.08171,
                    0.20846
                ],
                [
                    -0.00297,
                    -1.88197,
                    -0.24201
                ],
                [
                    0.29546,
                    -0.27804,
                    -2.31415
                ]
            ],
            [
                [
                    -1.72933,
                    -0.08161,
                    0.20825
                ],
                [
                    0.00297,
                    -1.88197,
                    0.24201
                ],
                [
                    0.29544,
                    0.27802,
                    -2.31417
                ]
            ],
            [
                [
                    -1.72933,
                    0.08161,
                    0.20825
                ],
                [
                    -0.00303,
                    -1.88203,
                    -0.24205
                ],
                [
                    0.29544,
                    -0.27802,
                    -2.31417
                ]
            ]
        ]
    },
    "band_gap": 3.4438999999999997,
    "is_direct": true,
    "formula": "Cs6Si2O7"
}