{
    "mp_id": "mp-18938",
    "nelements": 3,
    "nsites": 14,
    "elements": [
        "Mo",
        "O",
        "Tl"
    ],
    "structure": {
        "@module": "pymatgen.core.structure",
        "@class": "Structure",
        "charge": null,
        "lattice": {
            "matrix": [
                [
                    5.18479291,
                    -3.2273703,
                    0.00197247
                ],
                [
                    5.18479291,
                    3.2273703,
                    0.00197247
                ],
                [
                    -0.28089216,
                    0.0,
                    7.95766102
                ]
            ],
            "a": 6.107208893066149,
            "b": 6.107208893066149,
            "c": 7.962616989079464,
            "alpha": 91.69766706799633,
            "beta": 91.69766706799633,
            "gamma": 63.801922878648845,
            "volume": 266.3185854575068
        },
        "sites": [
            {
                "species": [
                    {
                        "element": "Tl",
                        "occu": 1
                    }
                ],
                "abc": [
                    0.33388847,
                    0.34046937,
                    0.17738177
                ],
                "xyz": [
                    3.446580599114991,
                    0.02123900120727007,
                    1.41287414739627
                ],
                "label": "Tl",
                "properties": {}
            },
            {
                "species": [
                    {
                        "element": "Tl",
                        "occu": 1
                    }
                ],
                "abc": [
                    0.65953063,
                    0.66611153,
                    0.82261823
                ],
                "xyz": [
                    6.642113060885008,
                    0.021239001207269848,
                    6.548731812603729
                ],
                "label": "Tl",
                "properties": {}
            },
            {
                "species": [
                    {
                        "element": "Tl",
                        "occu": 1
                    }
                ],
                "abc": [
                    0.95263767,
                    0.04736233,
                    0.5
                ],
                "xyz": [
                    5.044346829999999,
                    -2.921658745638402,
                    3.98080298
                ],
                "label": "Tl",
                "properties": {}
            },
            {
                "species": [
                    {
                        "element": "Tl",
                        "occu": 1
                    }
                ],
                "abc": [
                    0.0009382,
                    0.9990618,
                    0.0
                ],
                "xyz": [
                    5.18479291,
                    3.22131446236908,
                    0.00197247
                ],
                "label": "Tl",
                "properties": {}
            },
            {
                "species": [
                    {
                        "element": "Mo",
                        "occu": 1
                    }
                ],
                "abc": [
                    0.63824335,
                    0.68547457,
                    0.3075348
                ],
                "xyz": [
                    6.7768191722087785,
                    0.152432636660766,
                    2.449868684139158
                ],
                "label": "Mo",
                "properties": {}
            },
            {
                "species": [
                    {
                        "element": "Mo",
                        "occu": 1
                    }
                ],
                "abc": [
                    0.31452543,
                    0.36175665,
                    0.6924652
                ],
                "xyz": [
                    3.3118744877912207,
                    0.152432636660766,
                    5.511737275860842
                ],
                "label": "Mo",
                "properties": {}
            },
            {
                "species": [
                    {
                        "element": "O",
                        "occu": 1
                    }
                ],
                "abc": [
                    0.77015845,
                    0.39711977,
                    0.19662461
                ],
                "xyz": [
                    5.996865527641362,
                    -1.2039339565832043,
                    1.5669744158403056
                ],
                "label": "O",
                "properties": {}
            },
            {
                "species": [
                    {
                        "element": "O",
                        "occu": 1
                    }
                ],
                "abc": [
                    0.60288023,
                    0.22984155,
                    0.80337539
                ],
                "xyz": [
                    4.0918281323586365,
                    -1.203933956583204,
                    6.394631544159695
                ],
                "label": "O",
                "properties": {}
            },
            {
                "species": [
                    {
                        "element": "O",
                        "occu": 1
                    }
                ],
                "abc": [
                    0.70404692,
                    0.90379031,
                    0.20019004
                ],
                "xyz": [
                    8.280071257791953,
                    0.6446458845073169,
                    1.596215888601299
                ],
                "label": "O",
                "properties": {}
            },
            {
                "species": [
                    {
                        "element": "O",
                        "occu": 1
                    }
                ],
                "abc": [
                    0.09620969,
                    0.29595308,
                    0.79980996
                ],
                "xyz": [
                    1.808622402208047,
                    0.6446458845073169,
                    6.365390071398702
                ],
                "label": "O",
                "properties": {}
            },
            {
                "species": [
                    {
                        "element": "O",
                        "occu": 1
                    }
                ],
                "abc": [
                    0.31588049,
                    0.77715224,
                    0.30170511
                ],
                "xyz": [
                    5.582401748871007,
                    1.4886947461790252,
                    2.403022967650755
                ],
                "label": "O",
                "properties": {}
            },
            {
                "species": [
                    {
                        "element": "O",
                        "occu": 1
                    }
                ],
                "abc": [
                    0.22284776,
                    0.68411951,
                    0.69829489
                ],
                "xyz": [
                    4.506291911128994,
                    1.4886947461790252,
                    5.558582992349245
                ],
                "label": "O",
                "properties": {}
            },
            {
                "species": [
                    {
                        "element": "O",
                        "occu": 1
                    }
                ],
                "abc": [
                    0.35498637,
                    0.23737367,
                    0.48333762
                ],
                "xyz": [
                    2.935498387468257,
                    -0.37957973488280994,
                    3.847405350581671
                ],
                "label": "O",
                "properties": {}
            },
            {
                "species": [
                    {
                        "element": "O",
                        "occu": 1
                    }
                ],
                "abc": [
                    0.76262633,
                    0.64501363,
                    0.51666238
                ],
                "xyz": [
                    7.153195272531742,
                    -0.3795797348828098,
                    4.1142006094183285
                ],
                "label": "O",
                "properties": {}
            }
        ]
    },
    "spacegroup": {
        "source": "spglib",
        "symbol": "C2",
        "number": 5,
        "point_group": "2",
        "crystal_system": "monoclinic",
        "hall": "C 2y"
    },
    "dielectric": {
        "epsilon_ionic": [
            [
                13.97398345,
                -0.00042913,
                -2.39984989
            ],
            [
                -0.00042913,
                12.61719765,
                0.00033977
            ],
            [
                -2.39984989,
                0.00033977,
                38.94383523
            ]
        ],
        "epsilon_ionic_avg": 21.84500544333333,
        "epsilon_ionic_eig": [
            39.17239250201382,
            13.745426321673747,
            12.61719750631243
        ],
        "epsilon_electronic": [
            [
                4.93441442,
                0.0,
                0.08344265
            ],
            [
                0.0,
                4.6082457,
                0.0
            ],
            [
                0.08344526,
                0.0,
                4.69092164
            ]
        ],
        "epsilon_electronic_avg": 4.744527253333334,
        "epsilon_electronic_eig": [
            4.96026571664302,
            4.66507034335698,
            4.6082457
        ]
    },
    "phonon": {
        "lowest_freq": -0.09793675296746644,
        "frequency": [
            -0.09793675296746644,
            -0.0372482117962897,
            -0.03223508670824154,
            0.32412054103802274,
            0.8656449913498963,
            0.9688271928506176,
            1.003577071842415,
            1.0327925608309358,
            1.3707186967862512,
            1.4989569129551559,
            1.6023810060373023,
            1.8068943670183752,
            1.9772285313564444,
            2.0870387673642705,
            2.136587381507335,
            2.2131145369938134,
            2.307528380593817,
            2.431922031668231,
            2.5659664315974355,
            2.7856628009723825,
            3.125216464028345,
            3.5315996484499834,
            3.681618387642559,
            4.096823719518967,
            7.737462778370431,
            7.992219572929313,
            8.281476524823152,
            8.390332086007913,
            8.745525349048934,
            8.85728905670235,
            8.95175307270162,
            9.050943336606258,
            9.334149992899215,
            9.439901460288464,
            22.572122019646553,
            22.893383909160125,
            23.092627048284474,
            23.137823978817654,
            23.67979247044057,
            23.820575682445707,
            25.69353040342422,
            25.757890841999647
        ]
    },
    "born_effective_charge": {
        "avg_abs_trace": 2.2282540476190476,
        "tensors": [
            [
                [
                    1.76291,
                    0.30876,
                    0.13686
                ],
                [
                    0.06328,
                    1.79072,
                    -0.09148
                ],
                [
                    -0.01908,
                    -0.18982,
                    2.19961
                ]
            ],
            [
                [
                    1.76292,
                    -0.30889,
                    0.13695
                ],
                [
                    -0.06328,
                    1.79072,
                    0.09148
                ],
                [
                    -0.01893,
                    0.18996,
                    2.19973
                ]
            ],
            [
                [
                    1.82448,
                    1e-05,
                    -0.1523
                ],
                [
                    -0.0,
                    2.29227,
                    0.0
                ],
                [
                    0.04564,
                    7e-05,
                    1.63082
                ]
            ],
            [
                [
                    1.93216,
                    -5e-05,
                    -0.3007
                ],
                [
                    -0.0,
                    2.11983,
                    0.0
                ],
                [
                    -0.35666,
                    0.00021,
                    2.45907
                ]
            ],
            [
                [
                    4.07273,
                    0.09931,
                    0.01926
                ],
                [
                    0.26038,
                    3.65671,
                    -0.23376
                ],
                [
                    0.30659,
                    -0.21023,
                    3.78491
                ]
            ],
            [
                [
                    4.07267,
                    -0.09973,
                    0.01936
                ],
                [
                    -0.26038,
                    3.65671,
                    0.23376
                ],
                [
                    0.30596,
                    0.20992,
                    3.78436
                ]
            ],
            [
                [
                    -1.62819,
                    -1.03421,
                    -0.71917
                ],
                [
                    -0.76818,
                    -2.62985,
                    -1.03827
                ],
                [
                    -0.49653,
                    -1.00977,
                    -1.65836
                ]
            ],
            [
                [
                    -1.62861,
                    1.03411,
                    -0.71908
                ],
                [
                    0.76818,
                    -2.62985,
                    1.03827
                ],
                [
                    -0.49611,
                    1.00946,
                    -1.65779
                ]
            ],
            [
                [
                    -3.11936,
                    -0.80364,
                    1.40673
                ],
                [
                    -0.77637,
                    -1.52578,
                    0.40247
                ],
                [
                    1.03585,
                    0.19162,
                    -1.66199
                ]
            ],
            [
                [
                    -3.11916,
                    0.80342,
                    1.40663
                ],
                [
                    0.77637,
                    -1.52578,
                    -0.40247
                ],
                [
                    1.03701,
                    -0.19161,
                    -1.66247
                ]
            ],
            [
                [
                    -2.07801,
                    1.43686,
                    -0.16257
                ],
                [
                    1.09496,
                    -2.50808,
                    -0.16961
                ],
                [
                    -0.29674,
                    0.00226,
                    -0.99535
                ]
            ],
            [
                [
                    -2.07721,
                    -1.43616,
                    -0.16268
                ],
                [
                    -1.09496,
                    -2.50808,
                    0.16961
                ],
                [
                    -0.29682,
                    -0.00223,
                    -0.99491
                ]
            ],
            [
                [
                    -0.88851,
                    -0.13854,
                    -0.4544
                ],
                [
                    -0.0921,
                    -0.98977,
                    -0.78681
                ],
                [
                    -0.37503,
                    -0.58485,
                    -3.71385
                ]
            ],
            [
                [
                    -0.88883,
                    0.13876,
                    -0.45489
                ],
                [
                    0.0921,
                    -0.98977,
                    0.78681
                ],
                [
                    -0.37514,
                    0.58501,
                    -3.71378
                ]
            ]
        ]
    },
    "band_gap": 3.0012999999999996,
    "is_direct": false,
    "formula": "Tl2MoO4"
}