{
    "mp_id": "mp-18253",
    "nelements": 3,
    "nsites": 24,
    "elements": [
        "Ga",
        "O",
        "Sr"
    ],
    "structure": {
        "@module": "pymatgen.core.structure",
        "@class": "Structure",
        "charge": null,
        "lattice": {
            "matrix": [
                [
                    6.75195682,
                    -4.60630801,
                    0.00060217
                ],
                [
                    6.75195682,
                    4.60630801,
                    0.00060217
                ],
                [
                    -1.56701994,
                    0.0,
                    5.49161039
                ]
            ],
            "a": 8.173554596669883,
            "b": 8.173554596669883,
            "c": 5.710808714001333,
            "alpha": 103.09697973493313,
            "beta": 103.09697973493313,
            "gamma": 68.60504188948546,
            "volume": 341.6043532855705
        },
        "sites": [
            {
                "species": [
                    {
                        "element": "Sr",
                        "occu": 1
                    }
                ],
                "abc": [
                    0.31454204,
                    0.68545796,
                    0.25
                ],
                "xyz": [
                    6.360201835,
                    1.7085529733325193,
                    1.3735047675
                ],
                "label": "Sr",
                "properties": {}
            },
            {
                "species": [
                    {
                        "element": "Sr",
                        "occu": 1
                    }
                ],
                "abc": [
                    0.68545796,
                    0.31454204,
                    0.75
                ],
                "xyz": [
                    5.576691865,
                    -1.7085529733325193,
                    4.1193099625
                ],
                "label": "Sr",
                "properties": {}
            },
            {
                "species": [
                    {
                        "element": "Ga",
                        "occu": 1
                    }
                ],
                "abc": [
                    0.42001468,
                    0.2434894,
                    0.20184877
                ],
                "xyz": [
                    4.163649850599352,
                    -0.8131298112314929,
                    1.108874344792574
                ],
                "label": "Ga",
                "properties": {}
            },
            {
                "species": [
                    {
                        "element": "Ga",
                        "occu": 1
                    }
                ],
                "abc": [
                    0.7565106,
                    0.57998532,
                    0.29815123
                ],
                "xyz": [
                    8.55675381940065,
                    -0.8131298112314931,
                    1.6381351902074262
                ],
                "label": "Ga",
                "properties": {}
            },
            {
                "species": [
                    {
                        "element": "Ga",
                        "occu": 1
                    }
                ],
                "abc": [
                    0.57998532,
                    0.7565106,
                    0.79815123
                ],
                "xyz": [
                    7.773243849400648,
                    0.8131298112314931,
                    4.383940385207426
                ],
                "label": "Ga",
                "properties": {}
            },
            {
                "species": [
                    {
                        "element": "Ga",
                        "occu": 1
                    }
                ],
                "abc": [
                    0.2434894,
                    0.42001468,
                    0.70184877
                ],
                "xyz": [
                    3.380139880599352,
                    0.8131298112314929,
                    3.8546795397925737
                ],
                "label": "Ga",
                "properties": {}
            },
            {
                "species": [
                    {
                        "element": "Ga",
                        "occu": 1
                    }
                ],
                "abc": [
                    0.82057659,
                    0.94162632,
                    0.2439978
                ],
                "xyz": [
                    11.515968538482216,
                    0.5575923409073371,
                    1.3410019993434568
                ],
                "label": "Ga",
                "properties": {}
            },
            {
                "species": [
                    {
                        "element": "Ga",
                        "occu": 1
                    }
                ],
                "abc": [
                    0.05837368,
                    0.17942341,
                    0.2560022
                ],
                "xyz": [
                    1.2044351315177857,
                    0.5575923409073373,
                    1.4060075356565434
                ],
                "label": "Ga",
                "properties": {}
            },
            {
                "species": [
                    {
                        "element": "Ga",
                        "occu": 1
                    }
                ],
                "abc": [
                    0.94162632,
                    0.82057659,
                    0.7439978
                ],
                "xyz": [
                    10.732458568482215,
                    -0.5575923409073371,
                    4.086807194343457
                ],
                "label": "Ga",
                "properties": {}
            },
            {
                "species": [
                    {
                        "element": "Ga",
                        "occu": 1
                    }
                ],
                "abc": [
                    0.17942341,
                    0.05837368,
                    0.7560022
                ],
                "xyz": [
                    0.4209251615177858,
                    -0.5575923409073373,
                    4.151812730656543
                ],
                "label": "Ga",
                "properties": {}
            },
            {
                "species": [
                    {
                        "element": "O",
                        "occu": 1
                    }
                ],
                "abc": [
                    0.03681008,
                    0.96318992,
                    0.25
                ],
                "xyz": [
                    6.360201835000001,
                    4.267190877294518,
                    1.3735047675
                ],
                "label": "O",
                "properties": {}
            },
            {
                "species": [
                    {
                        "element": "O",
                        "occu": 1
                    }
                ],
                "abc": [
                    0.96318992,
                    0.03681008,
                    0.75
                ],
                "xyz": [
                    5.576691865000001,
                    -4.267190877294518,
                    4.1193099625
                ],
                "label": "O",
                "properties": {}
            },
            {
                "species": [
                    {
                        "element": "O",
                        "occu": 1
                    }
                ],
                "abc": [
                    0.63721812,
                    0.12325991,
                    0.35701082
                ],
                "xyz": [
                    4.575271747382914,
                    -2.367449819528262,
                    1.961022265509745
                ],
                "label": "O",
                "properties": {}
            },
            {
                "species": [
                    {
                        "element": "O",
                        "occu": 1
                    }
                ],
                "abc": [
                    0.87674009,
                    0.36278188,
                    0.14298918
                ],
                "xyz": [
                    8.145131922617086,
                    -2.3674498195282627,
                    0.785987269490255
                ],
                "label": "O",
                "properties": {}
            },
            {
                "species": [
                    {
                        "element": "O",
                        "occu": 1
                    }
                ],
                "abc": [
                    0.36278188,
                    0.87674009,
                    0.64298918
                ],
                "xyz": [
                    7.361621952617086,
                    2.3674498195282627,
                    3.5317924644902554
                ],
                "label": "O",
                "properties": {}
            },
            {
                "species": [
                    {
                        "element": "O",
                        "occu": 1
                    }
                ],
                "abc": [
                    0.12325991,
                    0.63721812,
                    0.85701082
                ],
                "xyz": [
                    3.7917617773829138,
                    2.367449819528262,
                    4.706827460509745
                ],
                "label": "O",
                "properties": {}
            },
            {
                "species": [
                    {
                        "element": "O",
                        "occu": 1
                    }
                ],
                "abc": [
                    0.56899997,
                    0.66176241,
                    0.05387662
                ],
                "xyz": [
                    8.22562870760063,
                    0.4272923703991447,
                    0.2966105343524464
                ],
                "label": "O",
                "properties": {}
            },
            {
                "species": [
                    {
                        "element": "O",
                        "occu": 1
                    }
                ],
                "abc": [
                    0.33823759,
                    0.43100003,
                    0.44612338
                ],
                "xyz": [
                    4.494774962399371,
                    0.42729237039914447,
                    2.4503990006475536
                ],
                "label": "O",
                "properties": {}
            },
            {
                "species": [
                    {
                        "element": "O",
                        "occu": 1
                    }
                ],
                "abc": [
                    0.12504773,
                    0.25203899,
                    0.59253423
                ],
                "xyz": [
                    1.6175602972928842,
                    0.5849608581379928,
                    3.254194204208832
                ],
                "label": "O",
                "properties": {}
            },
            {
                "species": [
                    {
                        "element": "O",
                        "occu": 1
                    }
                ],
                "abc": [
                    0.74796101,
                    0.87495227,
                    0.90746577
                ],
                "xyz": [
                    9.535823432707117,
                    0.5849608581379924,
                    4.984425720791168
                ],
                "label": "O",
                "properties": {}
            },
            {
                "species": [
                    {
                        "element": "O",
                        "occu": 1
                    }
                ],
                "abc": [
                    0.87495227,
                    0.74796101,
                    0.40746577
                ],
                "xyz": [
                    10.319333402707116,
                    -0.5849608581379924,
                    2.238620525791168
                ],
                "label": "O",
                "properties": {}
            },
            {
                "species": [
                    {
                        "element": "O",
                        "occu": 1
                    }
                ],
                "abc": [
                    0.25203899,
                    0.12504773,
                    0.09253423
                ],
                "xyz": [
                    2.401070267292884,
                    -0.5849608581379928,
                    0.5083890092088321
                ],
                "label": "O",
                "properties": {}
            },
            {
                "species": [
                    {
                        "element": "O",
                        "occu": 1
                    }
                ],
                "abc": [
                    0.66176241,
                    0.56899997,
                    0.55387662
                ],
                "xyz": [
                    7.442118737600629,
                    -0.4272923703991447,
                    3.0424157293524465
                ],
                "label": "O",
                "properties": {}
            },
            {
                "species": [
                    {
                        "element": "O",
                        "occu": 1
                    }
                ],
                "abc": [
                    0.43100003,
                    0.33823759,
                    0.94612338
                ],
                "xyz": [
                    3.711264992399371,
                    -0.42729237039914447,
                    5.196204195647553
                ],
                "label": "O",
                "properties": {}
            }
        ]
    },
    "spacegroup": {
        "source": "spglib",
        "symbol": "C2/c",
        "number": 15,
        "point_group": "2/m",
        "crystal_system": "monoclinic",
        "hall": "-C 2yc"
    },
    "dielectric": {
        "epsilon_ionic": [
            [
                5.95618246,
                -1e-08,
                2.32487326
            ],
            [
                -1e-08,
                4.29670018,
                -0.0
            ],
            [
                2.32487326,
                -0.0,
                13.34430049
            ]
        ],
        "epsilon_ionic_avg": 7.865727710000002,
        "epsilon_ionic_eig": [
            14.014998934626576,
            5.285484015373432,
            4.296700179999999
        ],
        "epsilon_electronic": [
            [
                3.28646,
                0.0,
                0.05122645
            ],
            [
                0.0,
                3.30560597,
                0.0
            ],
            [
                0.05122406,
                0.0,
                3.43033302
            ]
        ],
        "epsilon_electronic_avg": 3.3407996633333332,
        "epsilon_electronic_eig": [
            3.270085195779414,
            3.446707824220586,
            3.30560597
        ]
    },
    "phonon": {
        "lowest_freq": -0.08469228490646039,
        "frequency": [
            -0.08469228490646039,
            -0.06702417271259217,
            -0.052065413587752435,
            2.041388787227431,
            2.358971454582439,
            2.4996297761681214,
            2.5206503833600986,
            2.732652728617164,
            2.8324236958669635,
            3.324458957703277,
            3.3631833645512423,
            3.4498868382144114,
            3.812536549282341,
            3.8650225118131902,
            3.867800548065329,
            3.920667820184561,
            4.043791926109161,
            4.340213959492545,
            4.535341572250524,
            4.576337757492628,
            5.174161759037989,
            5.17462227715742,
            5.318182023518208,
            5.486030933712149,
            5.639759101146527,
            5.680986773188475,
            5.770164049927079,
            6.304666171974776,
            6.8773350085177505,
            7.023589302161858,
            7.07226931704605,
            7.109409276477287,
            7.684781486195646,
            7.789304887697926,
            7.991269908027892,
            8.226988377887338,
            8.258088250120775,
            8.333321285633904,
            8.652665047699902,
            8.908185877192116,
            8.93207460007913,
            9.567427644513252,
            10.515431818465231,
            10.906593279936207,
            13.038890861996363,
            13.510083692619535,
            14.070198967414525,
            14.093877140348432,
            14.143819534170579,
            14.234794657173277,
            14.478039858613096,
            14.59098423823017,
            14.931846076291043,
            16.241501928083082,
            16.57961598250559,
            16.650967285967372,
            17.95082389018367,
            18.342440713255296,
            18.624765552444593,
            18.87313962274831,
            18.887942623174595,
            19.388717366646162,
            19.70104072207194,
            19.880305087001787,
            20.989029242218116,
            21.609991221264508,
            21.665606999144057,
            22.190091470523704,
            23.346236597539246,
            23.423045469109997,
            23.806139172184025,
            23.85320556176094
        ]
    },
    "born_effective_charge": {
        "avg_abs_trace": 2.231153611111111,
        "tensors": [
            [
                [
                    2.28802,
                    -8e-05,
                    0.10289
                ],
                [
                    -0.0,
                    2.47806,
                    0.0
                ],
                [
                    0.14965,
                    2e-05,
                    2.63353
                ]
            ],
            [
                [
                    2.28802,
                    8e-05,
                    0.10289
                ],
                [
                    -0.0,
                    2.47808,
                    0.0
                ],
                [
                    0.14965,
                    -2e-05,
                    2.63353
                ]
            ],
            [
                [
                    2.62693,
                    -0.2635,
                    0.08889
                ],
                [
                    -0.10811,
                    2.65661,
                    -0.34725
                ],
                [
                    0.08943,
                    0.05806,
                    2.80034
                ]
            ],
            [
                [
                    2.62707,
                    0.26334,
                    0.0889
                ],
                [
                    0.10811,
                    2.65661,
                    0.34725
                ],
                [
                    0.08937,
                    -0.05793,
                    2.80025
                ]
            ],
            [
                [
                    2.62707,
                    -0.26334,
                    0.0889
                ],
                [
                    -0.10819,
                    2.65647,
                    -0.34723
                ],
                [
                    0.08937,
                    0.05793,
                    2.80025
                ]
            ],
            [
                [
                    2.62693,
                    0.2635,
                    0.08889
                ],
                [
                    0.10819,
                    2.65647,
                    0.34723
                ],
                [
                    0.08943,
                    -0.05806,
                    2.80034
                ]
            ],
            [
                [
                    2.73599,
                    -0.12405,
                    -0.02349
                ],
                [
                    0.02543,
                    2.67061,
                    0.16628
                ],
                [
                    -0.0359,
                    -0.19871,
                    2.89022
                ]
            ],
            [
                [
                    2.73582,
                    0.12394,
                    -0.02341
                ],
                [
                    -0.02543,
                    2.67061,
                    -0.16628
                ],
                [
                    -0.03573,
                    0.19868,
                    2.89024
                ]
            ],
            [
                [
                    2.73599,
                    0.12405,
                    -0.02349
                ],
                [
                    -0.02556,
                    2.67059,
                    -0.1663
                ],
                [
                    -0.0359,
                    0.19871,
                    2.89022
                ]
            ],
            [
                [
                    2.73582,
                    -0.12394,
                    -0.02341
                ],
                [
                    0.02556,
                    2.67059,
                    0.1663
                ],
                [
                    -0.03573,
                    -0.19868,
                    2.89024
                ]
            ],
            [
                [
                    -2.39703,
                    0.00012,
                    -0.12351
                ],
                [
                    0.0,
                    -1.73717,
                    0.0
                ],
                [
                    -0.12175,
                    0.00023,
                    -1.65576
                ]
            ],
            [
                [
                    -2.39703,
                    -0.00012,
                    -0.12351
                ],
                [
                    -0.0,
                    -1.73699,
                    0.0
                ],
                [
                    -0.12175,
                    -0.00023,
                    -1.65576
                ]
            ],
            [
                [
                    -1.25517,
                    0.21983,
                    -0.22466
                ],
                [
                    0.22269,
                    -2.59916,
                    0.03662
                ],
                [
                    -0.23417,
                    -0.0124,
                    -1.74937
                ]
            ],
            [
                [
                    -1.25517,
                    -0.21988,
                    -0.22449
                ],
                [
                    -0.22269,
                    -2.59916,
                    -0.03662
                ],
                [
                    -0.23413,
                    0.0124,
                    -1.74936
                ]
            ],
            [
                [
                    -1.25517,
                    0.21988,
                    -0.22449
                ],
                [
                    0.22269,
                    -2.59916,
                    0.03651
                ],
                [
                    -0.23413,
                    -0.0124,
                    -1.74936
                ]
            ],
            [
                [
                    -1.25517,
                    -0.21983,
                    -0.22466
                ],
                [
                    -0.22269,
                    -2.59916,
                    -0.03651
                ],
                [
                    -0.23417,
                    0.0124,
                    -1.74937
                ]
            ],
            [
                [
                    -1.77138,
                    0.04225,
                    0.34993
                ],
                [
                    0.05874,
                    -1.69938,
                    0.34081
                ],
                [
                    0.32881,
                    0.37022,
                    -2.26807
                ]
            ],
            [
                [
                    -1.77128,
                    -0.04199,
                    0.34994
                ],
                [
                    -0.05874,
                    -1.69938,
                    -0.34081
                ],
                [
                    0.32885,
                    -0.37051,
                    -2.26815
                ]
            ],
            [
                [
                    -2.28191,
                    -0.43855,
                    -0.18051
                ],
                [
                    -0.37242,
                    -1.39909,
                    0.27013
                ],
                [
                    -0.16225,
                    0.19965,
                    -2.1619
                ]
            ],
            [
                [
                    -2.28189,
                    0.43856,
                    -0.18049
                ],
                [
                    0.37242,
                    -1.39909,
                    -0.27013
                ],
                [
                    -0.16217,
                    -0.19982,
                    -2.16198
                ]
            ],
            [
                [
                    -2.28189,
                    -0.43856,
                    -0.18049
                ],
                [
                    -0.37245,
                    -1.39916,
                    0.27016
                ],
                [
                    -0.16217,
                    0.19982,
                    -2.16198
                ]
            ],
            [
                [
                    -2.28191,
                    0.43855,
                    -0.18051
                ],
                [
                    0.37245,
                    -1.39916,
                    -0.27016
                ],
                [
                    -0.16225,
                    -0.19965,
                    -2.1619
                ]
            ],
            [
                [
                    -1.77138,
                    -0.04225,
                    0.34993
                ],
                [
                    -0.05855,
                    -1.69932,
                    -0.34086
                ],
                [
                    0.32881,
                    -0.37022,
                    -2.26807
                ]
            ],
            [
                [
                    -1.77128,
                    0.04199,
                    0.34994
                ],
                [
                    0.05855,
                    -1.69932,
                    0.34086
                ],
                [
                    0.32885,
                    0.37051,
                    -2.26815
                ]
            ]
        ]
    },
    "band_gap": 2.5726,
    "is_direct": true,
    "formula": "SrGa4O7"
}