{
    "mp_id": "mp-1228177",
    "nelements": 4,
    "nsites": 26,
    "elements": [
        "Al",
        "O",
        "Si",
        "Tl"
    ],
    "structure": {
        "@module": "pymatgen.core.structure",
        "@class": "Structure",
        "charge": null,
        "lattice": {
            "matrix": [
                [
                    7.2967308,
                    0.0008129,
                    0.00440952
                ],
                [
                    -1.83307874,
                    7.50302713,
                    -0.00062667
                ],
                [
                    -2.05956439,
                    -3.59956869,
                    6.8774467
                ]
            ],
            "a": 7.29673217764923,
            "b": 7.7237033975464975,
            "c": 8.031063026892845,
            "alpha": 111.99994995735494,
            "beta": 104.83179063676334,
            "gamma": 103.72271870436772,
            "volume": 376.6145139350235
        },
        "sites": [
            {
                "species": [
                    {
                        "element": "Al",
                        "occu": 1
                    }
                ],
                "abc": [
                    0.21628124,
                    0.82145991,
                    0.20105491
                ],
                "xyz": [
                    -0.34174024448377616,
                    5.439900846950587,
                    1.383183339469902
                ],
                "label": "Al",
                "properties": {}
            },
            {
                "species": [
                    {
                        "element": "Al",
                        "occu": 1
                    }
                ],
                "abc": [
                    0.78371876,
                    0.17854009,
                    0.79894509
                ],
                "xyz": [
                    3.745827914483775,
                    -1.5356295069505863,
                    5.498046210530098
                ],
                "label": "Al",
                "properties": {}
            },
            {
                "species": [
                    {
                        "element": "Tl",
                        "occu": 1
                    }
                ],
                "abc": [
                    0.14390358,
                    0.29713681,
                    0.27259999
                ],
                "xyz": [
                    -0.05608671698451129,
                    1.248300137073524,
                    1.875240240634892
                ],
                "label": "Tl",
                "properties": {}
            },
            {
                "species": [
                    {
                        "element": "Tl",
                        "occu": 1
                    }
                ],
                "abc": [
                    0.85609642,
                    0.70286319,
                    0.72740001
                ],
                "xyz": [
                    3.4601743869845114,
                    2.655971202926476,
                    5.005989309365108
                ],
                "label": "Tl",
                "properties": {}
            },
            {
                "species": [
                    {
                        "element": "Si",
                        "occu": 1
                    }
                ],
                "abc": [
                    0.33768621,
                    0.59888842,
                    0.83961103
                ],
                "xyz": [
                    -0.36303723993114456,
                    1.471512992856293,
                    5.7754938362476596
                ],
                "label": "Si",
                "properties": {}
            },
            {
                "species": [
                    {
                        "element": "Si",
                        "occu": 1
                    }
                ],
                "abc": [
                    0.35055901,
                    0.82915877,
                    0.59700733
                ],
                "xyz": [
                    -0.19155362532402043,
                    4.072516823038162,
                    4.10691227962369
                ],
                "label": "Si",
                "properties": {}
            },
            {
                "species": [
                    {
                        "element": "Si",
                        "occu": 1
                    }
                ],
                "abc": [
                    0.66231379,
                    0.40111158,
                    0.16038897
                ],
                "xyz": [
                    3.7671249099311437,
                    2.4327583471437073,
                    1.1057357137523414
                ],
                "label": "Si",
                "properties": {}
            },
            {
                "species": [
                    {
                        "element": "Si",
                        "occu": 1
                    }
                ],
                "abc": [
                    0.64944099,
                    0.17084123,
                    0.40299267
                ],
                "xyz": [
                    3.5956412953240204,
                    -0.16824548303816123,
                    2.7743172703763097
                ],
                "label": "Si",
                "properties": {}
            },
            {
                "species": [
                    {
                        "element": "Si",
                        "occu": 1
                    }
                ],
                "abc": [
                    0.23371271,
                    0.19480106,
                    0.82588547
                ],
                "xyz": [
                    -0.35271125643740975,
                    -1.5110438561432176,
                    5.680891785118178
                ],
                "label": "Si",
                "properties": {}
            },
            {
                "species": [
                    {
                        "element": "Si",
                        "occu": 1
                    }
                ],
                "abc": [
                    0.76628729,
                    0.80519894,
                    0.17411453
                ],
                "xyz": [
                    3.7567989264374098,
                    5.415315196143218,
                    1.200337764881822
                ],
                "label": "Si",
                "properties": {}
            },
            {
                "species": [
                    {
                        "element": "O",
                        "occu": 1
                    }
                ],
                "abc": [
                    0.2160996,
                    0.66997756,
                    0.97591853
                ],
                "xyz": [
                    -1.6612680662545407,
                    1.514149691957218,
                    6.7123607142880175
                ],
                "label": "O",
                "properties": {}
            },
            {
                "species": [
                    {
                        "element": "O",
                        "occu": 1
                    }
                ],
                "abc": [
                    0.24019892,
                    0.98602341,
                    0.67991901
                ],
                "xyz": [
                    -1.455128673402621,
                    4.950940473615385,
                    4.676548002243141
                ],
                "label": "O",
                "properties": {}
            },
            {
                "species": [
                    {
                        "element": "O",
                        "occu": 1
                    }
                ],
                "abc": [
                    0.7839004,
                    0.33002244,
                    0.02408147
                ],
                "xyz": [
                    5.065355736254541,
                    2.3901216480427827,
                    0.1688688357119822
                ],
                "label": "O",
                "properties": {}
            },
            {
                "species": [
                    {
                        "element": "O",
                        "occu": 1
                    }
                ],
                "abc": [
                    0.75980108,
                    0.01397659,
                    0.32008099
                ],
                "xyz": [
                    4.859216343402621,
                    -1.0466691336153844,
                    2.2046815477568593
                ],
                "label": "O",
                "properties": {}
            },
            {
                "species": [
                    {
                        "element": "O",
                        "occu": 1
                    }
                ],
                "abc": [
                    0.25469354,
                    0.71892504,
                    0.3620683
                ],
                "xyz": [
                    -0.20511898602645462,
                    4.091031403613475,
                    2.490777982513294
                ],
                "label": "O",
                "properties": {}
            },
            {
                "species": [
                    {
                        "element": "O",
                        "occu": 1
                    }
                ],
                "abc": [
                    0.27215217,
                    0.35406322,
                    0.73800211
                ],
                "xyz": [
                    -0.18316750557296957,
                    0.00027788958421615106,
                    5.076548355651119
                ],
                "label": "O",
                "properties": {}
            },
            {
                "species": [
                    {
                        "element": "O",
                        "occu": 1
                    }
                ],
                "abc": [
                    0.74530646,
                    0.28107496,
                    0.6379317
                ],
                "xyz": [
                    3.6092066560264553,
                    -0.18676006361347453,
                    4.390451567486706
                ],
                "label": "O",
                "properties": {}
            },
            {
                "species": [
                    {
                        "element": "O",
                        "occu": 1
                    }
                ],
                "abc": [
                    0.72784783,
                    0.64593678,
                    0.26199789
                ],
                "xyz": [
                    3.58725517557297,
                    3.9039934504157845,
                    1.804681194348882
                ],
                "label": "O",
                "properties": {}
            },
            {
                "species": [
                    {
                        "element": "O",
                        "occu": 1
                    }
                ],
                "abc": [
                    0.98045934,
                    0.85144573,
                    0.14664013
                ],
                "xyz": [
                    5.291366008505921,
                    5.861376206664612,
                    1.012299457729369
                ],
                "label": "O",
                "properties": {}
            },
            {
                "species": [
                    {
                        "element": "O",
                        "occu": 1
                    }
                ],
                "abc": [
                    0.01954066,
                    0.14855427,
                    0.85335987
                ],
                "xyz": [
                    -1.8872783385059209,
                    -1.9571048666646114,
                    5.868930092270632
                ],
                "label": "O",
                "properties": {}
            },
            {
                "species": [
                    {
                        "element": "O",
                        "occu": 1
                    }
                ],
                "abc": [
                    0.28160565,
                    0.64813096,
                    0.65636382
                ],
                "xyz": [
                    -0.48509801425914034,
                    2.5005464381850344,
                    4.514942769375479
                ],
                "label": "O",
                "properties": {}
            },
            {
                "species": [
                    {
                        "element": "O",
                        "occu": 1
                    }
                ],
                "abc": [
                    0.71839435,
                    0.35186904,
                    0.34363618
                ],
                "xyz": [
                    3.8891856842591395,
                    1.4037249018149665,
                    2.3662867806245216
                ],
                "label": "O",
                "properties": {}
            },
            {
                "species": [
                    {
                        "element": "O",
                        "occu": 1
                    }
                ],
                "abc": [
                    0.40437655,
                    0.06200028,
                    0.30690141
                ],
                "xyz": [
                    2.204892216763903,
                    -0.6391942057477613,
                    2.1124423421991354
                ],
                "label": "O",
                "properties": {}
            },
            {
                "species": [
                    {
                        "element": "O",
                        "occu": 1
                    }
                ],
                "abc": [
                    0.41400221,
                    0.29360326,
                    0.04248818
                ],
                "xyz": [
                    2.3951576405504653,
                    2.0503106452098687,
                    0.29385175200010105
                ],
                "label": "O",
                "properties": {}
            },
            {
                "species": [
                    {
                        "element": "O",
                        "occu": 1
                    }
                ],
                "abc": [
                    0.59562345,
                    0.93799972,
                    0.69309859
                ],
                "xyz": [
                    1.1991954532360976,
                    4.543465545747763,
                    4.768787207800864
                ],
                "label": "O",
                "properties": {}
            },
            {
                "species": [
                    {
                        "element": "O",
                        "occu": 1
                    }
                ],
                "abc": [
                    0.58599779,
                    0.70639674,
                    0.95751182
                ],
                "xyz": [
                    1.0089300294495345,
                    1.853960694790131,
                    6.587377797999899
                ],
                "label": "O",
                "properties": {}
            }
        ]
    },
    "spacegroup": {
        "source": "spglib",
        "symbol": "P-1",
        "number": 2,
        "point_group": "-1",
        "crystal_system": "triclinic",
        "hall": "-P 1"
    },
    "dielectric": {
        "epsilon_ionic": [
            [
                5.47202361,
                -1.1712519,
                -0.5160751
            ],
            [
                -1.1712519,
                5.7875805,
                0.14782177
            ],
            [
                -0.5160751,
                0.14782177,
                4.3770307
            ]
        ],
        "epsilon_ionic_avg": 5.212211603333334,
        "epsilon_ionic_eig": [
            6.893578358602387,
            4.075201434532864,
            4.667855016864753
        ],
        "epsilon_electronic": [
            [
                2.79592624,
                -0.03287741,
                0.00148018
            ],
            [
                -0.03287713,
                2.82903332,
                0.02431022
            ],
            [
                0.00147961,
                0.02430987,
                2.78136972
            ]
        ],
        "epsilon_electronic_avg": 2.80210976,
        "epsilon_electronic_eig": [
            2.854876350346841,
            2.7892349842844553,
            2.7622179453687035
        ]
    },
    "phonon": {
        "lowest_freq": -0.07094529435756056,
        "frequency": [
            -0.07094529435756056,
            -0.04057010699124177,
            -0.025300831969626326,
            0.9642908863943846,
            1.0493553006108984,
            1.4020410494424147,
            1.517672123740512,
            1.6106838631633091,
            1.7984697114462371,
            1.9648097587616096,
            2.308989370532657,
            2.4219643259310284,
            3.0403669041281622,
            3.3289754476013598,
            3.4785635794973877,
            3.8709108302152324,
            4.059665853899413,
            4.445364805347491,
            5.197460170990377,
            5.5486826674994125,
            6.120333110774407,
            6.744481581992566,
            7.008560369693615,
            7.281107031290942,
            7.481964966241008,
            7.859851470045375,
            8.1478543177875,
            8.237577127872132,
            8.338690989462279,
            9.229602784448794,
            9.36027565964667,
            9.85033352709465,
            9.887866175033702,
            10.276272961540023,
            10.29937068248535,
            10.797048742053061,
            11.287359420210471,
            11.47718758260789,
            11.591340163777915,
            11.646275822445261,
            11.786700947149791,
            12.286130732048921,
            12.662187690397246,
            13.182015189989029,
            13.490009386761967,
            13.656589690029655,
            14.544825151423687,
            15.224825771676981,
            16.030037512690093,
            16.812129654340985,
            17.531482916264885,
            17.935272248736112,
            18.55558993329177,
            18.831263926001327,
            20.52222865671959,
            20.797553010971573,
            20.890435755875096,
            21.510177737171748,
            21.86256142375412,
            22.175066080346877,
            22.510379444003476,
            23.41799582801233,
            29.29597067010437,
            29.41117020882297,
            29.76435855225398,
            30.043553666074903,
            30.377408274332296,
            30.397543804780035,
            30.584144591251274,
            30.850240379633952,
            30.98943485025026,
            32.30412766994226,
            32.40170520134886,
            32.651466164448784,
            32.78838552344818,
            32.90804441521116,
            33.47020655441763,
            33.605610339216994
        ]
    },
    "born_effective_charge": {
        "avg_abs_trace": 2.1762220512820516,
        "tensors": [
            [
                [
                    2.72479,
                    0.02366,
                    0.02859
                ],
                [
                    0.0264,
                    2.60798,
                    -0.10976
                ],
                [
                    0.07194,
                    -0.13021,
                    2.8472
                ]
            ],
            [
                [
                    2.72478,
                    0.02368,
                    0.02858
                ],
                [
                    0.02638,
                    2.608,
                    -0.10979
                ],
                [
                    0.07199,
                    -0.13025,
                    2.84726
                ]
            ],
            [
                [
                    1.56161,
                    -0.23338,
                    -0.093
                ],
                [
                    -0.22567,
                    1.84264,
                    0.07504
                ],
                [
                    -0.10291,
                    0.1151,
                    1.72735
                ]
            ],
            [
                [
                    1.5616,
                    -0.23336,
                    -0.09302
                ],
                [
                    -0.2257,
                    1.84265,
                    0.07503
                ],
                [
                    -0.10288,
                    0.11509,
                    1.72738
                ]
            ],
            [
                [
                    3.31666,
                    0.12298,
                    0.00185
                ],
                [
                    -0.10031,
                    3.29347,
                    -0.00683
                ],
                [
                    0.18807,
                    -0.23972,
                    3.05843
                ]
            ],
            [
                [
                    3.20757,
                    0.06492,
                    0.09756
                ],
                [
                    0.01788,
                    3.1616,
                    0.0632
                ],
                [
                    -0.11361,
                    0.06169,
                    3.25845
                ]
            ],
            [
                [
                    3.3167,
                    0.12296,
                    0.00186
                ],
                [
                    -0.10032,
                    3.29343,
                    -0.00679
                ],
                [
                    0.18809,
                    -0.23969,
                    3.05835
                ]
            ],
            [
                [
                    3.20759,
                    0.06493,
                    0.09758
                ],
                [
                    0.01785,
                    3.16159,
                    0.06324
                ],
                [
                    -0.11353,
                    0.06171,
                    3.25832
                ]
            ],
            [
                [
                    3.32892,
                    -0.13709,
                    -0.03829
                ],
                [
                    0.10067,
                    3.491,
                    0.16265
                ],
                [
                    -0.08545,
                    0.20567,
                    3.0087
                ]
            ],
            [
                [
                    3.32891,
                    -0.13709,
                    -0.03826
                ],
                [
                    0.10069,
                    3.49103,
                    0.16267
                ],
                [
                    -0.08546,
                    0.20561,
                    3.00868
                ]
            ],
            [
                [
                    -2.0969,
                    0.20577,
                    0.49905
                ],
                [
                    0.22688,
                    -1.20594,
                    -0.09674
                ],
                [
                    0.45523,
                    -0.03089,
                    -1.96469
                ]
            ],
            [
                [
                    -2.02377,
                    0.61135,
                    0.59016
                ],
                [
                    0.67994,
                    -1.82191,
                    -0.65111
                ],
                [
                    0.65533,
                    -0.63618,
                    -1.57113
                ]
            ],
            [
                [
                    -2.09697,
                    0.20574,
                    0.49905
                ],
                [
                    0.22715,
                    -1.20589,
                    -0.09681
                ],
                [
                    0.45466,
                    -0.03106,
                    -1.96461
                ]
            ],
            [
                [
                    -2.02377,
                    0.61134,
                    0.59016
                ],
                [
                    0.67995,
                    -1.82191,
                    -0.65113
                ],
                [
                    0.65527,
                    -0.63618,
                    -1.57107
                ]
            ],
            [
                [
                    -1.06113,
                    0.01238,
                    -0.07652
                ],
                [
                    0.02487,
                    -1.89278,
                    0.25235
                ],
                [
                    -0.0529,
                    0.273,
                    -2.28146
                ]
            ],
            [
                [
                    -1.07451,
                    0.02032,
                    0.03178
                ],
                [
                    0.00479,
                    -2.7331,
                    0.0125
                ],
                [
                    0.02536,
                    0.06834,
                    -1.29465
                ]
            ],
            [
                [
                    -1.06112,
                    0.01241,
                    -0.07643
                ],
                [
                    0.02487,
                    -1.89291,
                    0.25217
                ],
                [
                    -0.05295,
                    0.27322,
                    -2.28119
                ]
            ],
            [
                [
                    -1.07454,
                    0.0203,
                    0.03177
                ],
                [
                    0.00476,
                    -2.73313,
                    0.01259
                ],
                [
                    0.02548,
                    0.06833,
                    -1.29483
                ]
            ],
            [
                [
                    -2.44244,
                    -0.11079,
                    -0.00597
                ],
                [
                    -0.15404,
                    -1.53511,
                    -0.00097
                ],
                [
                    -0.00688,
                    0.01047,
                    -1.49487
                ]
            ],
            [
                [
                    -2.4424,
                    -0.11076,
                    -0.00599
                ],
                [
                    -0.15404,
                    -1.5351,
                    -0.001
                ],
                [
                    -0.00694,
                    0.01038,
                    -1.49486
                ]
            ],
            [
                [
                    -1.18165,
                    -0.0955,
                    0.05241
                ],
                [
                    -0.09591,
                    -2.28137,
                    0.59274
                ],
                [
                    0.09588,
                    0.54307,
                    -1.91808
                ]
            ],
            [
                [
                    -1.18168,
                    -0.0955,
                    0.05244
                ],
                [
                    -0.09597,
                    -2.28131,
                    0.59263
                ],
                [
                    0.09585,
                    0.54308,
                    -1.91783
                ]
            ],
            [
                [
                    -2.12622,
                    -0.25727,
                    -0.47996
                ],
                [
                    -0.29019,
                    -1.77724,
                    -0.24559
                ],
                [
                    -0.41533,
                    -0.22459,
                    -1.35741
                ]
            ],
            [
                [
                    -2.13288,
                    -0.22732,
                    -0.60772
                ],
                [
                    -0.21534,
                    -1.14926,
                    -0.04734
                ],
                [
                    -0.71462,
                    -0.01567,
                    -2.01805
                ]
            ],
            [
                [
                    -2.12625,
                    -0.25729,
                    -0.47996
                ],
                [
                    -0.29028,
                    -1.7772,
                    -0.2456
                ],
                [
                    -0.41507,
                    -0.22466,
                    -1.35742
                ]
            ],
            [
                [
                    -2.13291,
                    -0.22736,
                    -0.6077
                ],
                [
                    -0.2153,
                    -1.14923,
                    -0.04736
                ],
                [
                    -0.71461,
                    -0.01566,
                    -2.018
                ]
            ]
        ]
    },
    "band_gap": 4.7177999999999995,
    "is_direct": false,
    "formula": "AlTlSi3O8"
}