{
    "mp_id": "mp-1210797",
    "nelements": 4,
    "nsites": 16,
    "elements": [
        "Ge",
        "Li",
        "Mg",
        "O"
    ],
    "structure": {
        "@module": "pymatgen.core.structure",
        "@class": "Structure",
        "charge": null,
        "lattice": {
            "matrix": [
                [
                    6.33686203,
                    0.0,
                    0.0
                ],
                [
                    0.0,
                    5.50725131,
                    0.0
                ],
                [
                    0.0,
                    0.0,
                    5.00694073
                ]
            ],
            "a": 6.33686203,
            "b": 5.50725131,
            "c": 5.00694073,
            "alpha": 90.0,
            "beta": 90.0,
            "gamma": 90.0,
            "volume": 174.73568097658784
        },
        "sites": [
            {
                "species": [
                    {
                        "element": "Li",
                        "occu": 1
                    }
                ],
                "abc": [
                    0.2508967,
                    0.83301406,
                    0.49980719
                ],
                "xyz": [
                    1.5898977716823008,
                    4.5876177731834185,
                    2.502504976757849
                ],
                "label": "Li",
                "properties": {}
            },
            {
                "species": [
                    {
                        "element": "Li",
                        "occu": 1
                    }
                ],
                "abc": [
                    0.2491033,
                    0.16698594,
                    0.99980719
                ],
                "xyz": [
                    1.5785332433176988,
                    0.9196335368165814,
                    5.005975341757849
                ],
                "label": "Li",
                "properties": {}
            },
            {
                "species": [
                    {
                        "element": "Li",
                        "occu": 1
                    }
                ],
                "abc": [
                    0.7508967,
                    0.16698594,
                    0.99980719
                ],
                "xyz": [
                    4.7583287866823,
                    0.9196335368165814,
                    5.005975341757849
                ],
                "label": "Li",
                "properties": {}
            },
            {
                "species": [
                    {
                        "element": "Li",
                        "occu": 1
                    }
                ],
                "abc": [
                    0.7491033,
                    0.83301406,
                    0.49980719
                ],
                "xyz": [
                    4.746964258317699,
                    4.5876177731834185,
                    2.502504976757849
                ],
                "label": "Li",
                "properties": {}
            },
            {
                "species": [
                    {
                        "element": "Mg",
                        "occu": 1
                    }
                ],
                "abc": [
                    0.0,
                    0.33244235,
                    0.49946335
                ],
                "xyz": [
                    0.0,
                    1.8308435675369785,
                    2.5007833902572454
                ],
                "label": "Mg",
                "properties": {}
            },
            {
                "species": [
                    {
                        "element": "Mg",
                        "occu": 1
                    }
                ],
                "abc": [
                    0.5,
                    0.66755765,
                    0.99946335
                ],
                "xyz": [
                    3.168431015,
                    3.6764077424630215,
                    5.0042537552572455
                ],
                "label": "Mg",
                "properties": {}
            },
            {
                "species": [
                    {
                        "element": "Ge",
                        "occu": 1
                    }
                ],
                "abc": [
                    0.0,
                    0.67307455,
                    0.00680927
                ],
                "xyz": [
                    0.0,
                    3.706790697215161,
                    0.034093611304567104
                ],
                "label": "Ge",
                "properties": {}
            },
            {
                "species": [
                    {
                        "element": "Ge",
                        "occu": 1
                    }
                ],
                "abc": [
                    0.5,
                    0.32692545,
                    0.50680927
                ],
                "xyz": [
                    3.168431015,
                    1.8004606127848395,
                    2.537563976304567
                ],
                "label": "Ge",
                "properties": {}
            },
            {
                "species": [
                    {
                        "element": "O",
                        "occu": 1
                    }
                ],
                "abc": [
                    0.0,
                    0.36311415,
                    0.89439193
                ],
                "xyz": [
                    0.0,
                    1.9997608782670366,
                    4.478167382900309
                ],
                "label": "O",
                "properties": {}
            },
            {
                "species": [
                    {
                        "element": "O",
                        "occu": 1
                    }
                ],
                "abc": [
                    0.5,
                    0.63688585,
                    0.39439193
                ],
                "xyz": [
                    3.168431015,
                    3.5074904317329634,
                    1.974697017900309
                ],
                "label": "O",
                "properties": {}
            },
            {
                "species": [
                    {
                        "element": "O",
                        "occu": 1
                    }
                ],
                "abc": [
                    0.23319763,
                    0.82540259,
                    0.89370165
                ],
                "xyz": [
                    1.4777412070329887,
                    4.545699495054893,
                    4.4747111918532045
                ],
                "label": "O",
                "properties": {}
            },
            {
                "species": [
                    {
                        "element": "O",
                        "occu": 1
                    }
                ],
                "abc": [
                    0.26680237,
                    0.17459741,
                    0.39370165
                ],
                "xyz": [
                    1.6906898079670112,
                    0.9615518149451071,
                    1.9712408268532047
                ],
                "label": "O",
                "properties": {}
            },
            {
                "species": [
                    {
                        "element": "O",
                        "occu": 1
                    }
                ],
                "abc": [
                    0.73319763,
                    0.17459741,
                    0.39370165
                ],
                "xyz": [
                    4.646172222032989,
                    0.9615518149451071,
                    1.9712408268532047
                ],
                "label": "O",
                "properties": {}
            },
            {
                "species": [
                    {
                        "element": "O",
                        "occu": 1
                    }
                ],
                "abc": [
                    0.76680237,
                    0.82540259,
                    0.89370165
                ],
                "xyz": [
                    4.859120822967011,
                    4.545699495054893,
                    4.4747111918532045
                ],
                "label": "O",
                "properties": {}
            },
            {
                "species": [
                    {
                        "element": "O",
                        "occu": 1
                    }
                ],
                "abc": [
                    0.0,
                    0.66915686,
                    0.36481675
                ],
                "xyz": [
                    0.0,
                    3.6852149938304866,
                    1.8266158445612277
                ],
                "label": "O",
                "properties": {}
            },
            {
                "species": [
                    {
                        "element": "O",
                        "occu": 1
                    }
                ],
                "abc": [
                    0.5,
                    0.33084314,
                    0.86481675
                ],
                "xyz": [
                    3.168431015,
                    1.8220363161695132,
                    4.330086209561228
                ],
                "label": "O",
                "properties": {}
            }
        ]
    },
    "spacegroup": {
        "source": "spglib",
        "symbol": "Pmn2_1",
        "number": 31,
        "point_group": "mm2",
        "crystal_system": "orthorhombic",
        "hall": "P 2ac -2"
    },
    "dielectric": {
        "epsilon_ionic": [
            [
                3.19103861,
                0.0,
                -1e-08
            ],
            [
                0.0,
                2.68495152,
                5e-08
            ],
            [
                -1e-08,
                5e-08,
                3.65625468
            ]
        ],
        "epsilon_ionic_avg": 3.1774149366666666,
        "epsilon_ionic_eig": [
            3.1910386099999997,
            3.656254680000004,
            2.684951519999997
        ],
        "epsilon_electronic": [
            [
                3.00277153,
                0.0,
                0.0
            ],
            [
                0.0,
                2.90848689,
                0.0
            ],
            [
                0.0,
                0.0,
                3.03872153
            ]
        ],
        "epsilon_electronic_avg": 2.98332665,
        "epsilon_electronic_eig": [
            3.00277153,
            2.90848689,
            3.03872153
        ]
    },
    "phonon": {
        "lowest_freq": -0.057269409517688545,
        "frequency": [
            -0.057269409517688545,
            -0.04499271659660825,
            -0.03148505366062076,
            3.6595996017358674,
            4.468558847906044,
            4.6829855262963775,
            5.583754377993299,
            5.866642776613511,
            7.025983191662808,
            7.3526751653458735,
            7.6839634978710825,
            8.41182298237828,
            8.43397569766125,
            8.58126224260591,
            8.958302075421201,
            9.672134043998362,
            9.921017965476528,
            10.342633368917898,
            10.917931240643096,
            11.422999960093067,
            11.97372302074423,
            12.011234385795143,
            12.4660974130957,
            12.722647956764094,
            12.962597182845542,
            13.14445112068651,
            13.343067162053593,
            13.532321484821448,
            13.554515950628272,
            13.964433679651712,
            14.049763282191673,
            14.303335546875758,
            14.568886613636005,
            14.74565081621735,
            14.747307051474802,
            14.827891312296117,
            14.898866225394974,
            15.09604817857448,
            15.330129013589884,
            15.850999233262353,
            20.782151990393622,
            20.996962788884648,
            21.022079517148743,
            21.03351690916144,
            21.492623221347003,
            21.608021792689858,
            21.848963667226915,
            22.653763413245592
        ]
    },
    "born_effective_charge": {
        "avg_abs_trace": 1.7205262499999998,
        "tensors": [
            [
                [
                    0.9237,
                    0.07315,
                    -0.07635
                ],
                [
                    -0.08118,
                    1.10359,
                    -0.0211
                ],
                [
                    0.08536,
                    0.07377,
                    1.01709
                ]
            ],
            [
                [
                    0.9237,
                    0.07315,
                    0.07635
                ],
                [
                    -0.08118,
                    1.10359,
                    0.0211
                ],
                [
                    -0.08536,
                    -0.07377,
                    1.01709
                ]
            ],
            [
                [
                    0.9237,
                    -0.07315,
                    -0.07635
                ],
                [
                    0.08118,
                    1.10359,
                    0.0211
                ],
                [
                    0.08536,
                    -0.07377,
                    1.01709
                ]
            ],
            [
                [
                    0.9237,
                    -0.07315,
                    0.07635
                ],
                [
                    0.08118,
                    1.10359,
                    -0.0211
                ],
                [
                    -0.08536,
                    0.07377,
                    1.01709
                ]
            ],
            [
                [
                    2.12793,
                    -0.0,
                    -0.0
                ],
                [
                    0.0,
                    1.66018,
                    0.04415
                ],
                [
                    -0.0,
                    -0.22672,
                    1.98202
                ]
            ],
            [
                [
                    2.12793,
                    0.0,
                    -0.0
                ],
                [
                    0.0,
                    1.66018,
                    -0.04415
                ],
                [
                    -0.0,
                    0.22672,
                    1.98202
                ]
            ],
            [
                [
                    3.05831,
                    -0.0,
                    -0.0
                ],
                [
                    0.0,
                    2.67015,
                    -0.02581
                ],
                [
                    -0.0,
                    0.07372,
                    3.05898
                ]
            ],
            [
                [
                    3.05831,
                    0.0,
                    -0.0
                ],
                [
                    0.0,
                    2.67015,
                    0.02581
                ],
                [
                    -0.0,
                    -0.07372,
                    3.05898
                ]
            ],
            [
                [
                    -1.47804,
                    -0.0,
                    0.0
                ],
                [
                    0.0,
                    -1.93711,
                    -0.25342
                ],
                [
                    -0.0,
                    -0.22948,
                    -1.74385
                ]
            ],
            [
                [
                    -1.47804,
                    0.0,
                    0.0
                ],
                [
                    0.0,
                    -1.93711,
                    0.25343
                ],
                [
                    -0.0,
                    0.22948,
                    -1.74385
                ]
            ],
            [
                [
                    -2.04636,
                    -0.25763,
                    0.16189
                ],
                [
                    -0.19062,
                    -1.60666,
                    0.09973
                ],
                [
                    0.19524,
                    0.06194,
                    -1.54033
                ]
            ],
            [
                [
                    -2.04636,
                    -0.25763,
                    -0.16189
                ],
                [
                    -0.19062,
                    -1.60666,
                    -0.09973
                ],
                [
                    -0.19524,
                    -0.06194,
                    -1.54033
                ]
            ],
            [
                [
                    -2.04636,
                    0.25763,
                    0.16189
                ],
                [
                    0.19062,
                    -1.60666,
                    -0.09973
                ],
                [
                    0.19524,
                    -0.06194,
                    -1.54033
                ]
            ],
            [
                [
                    -2.04636,
                    0.25763,
                    -0.16189
                ],
                [
                    0.19062,
                    -1.60666,
                    0.09973
                ],
                [
                    -0.19524,
                    0.06194,
                    -1.54033
                ]
            ],
            [
                [
                    -1.46287,
                    -0.0,
                    0.0
                ],
                [
                    0.0,
                    -1.38707,
                    0.06317
                ],
                [
                    -0.0,
                    0.10669,
                    -2.25066
                ]
            ],
            [
                [
                    -1.46287,
                    0.0,
                    0.0
                ],
                [
                    0.0,
                    -1.38707,
                    -0.06317
                ],
                [
                    -0.0,
                    -0.10669,
                    -2.25066
                ]
            ]
        ]
    },
    "band_gap": 3.7343,
    "is_direct": false,
    "formula": "Li2MgGeO4"
}