{
    "mp_id": "mp-17559",
    "nelements": 3,
    "nsites": 32,
    "elements": [
        "O",
        "Ti",
        "Y"
    ],
    "structure": {
        "@module": "pymatgen.core.structure",
        "@class": "Structure",
        "charge": null,
        "lattice": {
            "matrix": [
                [
                    10.32920159,
                    0.0,
                    0.0
                ],
                [
                    0.0,
                    3.68811329,
                    0.0
                ],
                [
                    0.0,
                    0.0,
                    11.25672201
                ]
            ],
            "a": 10.32920159,
            "b": 3.68811329,
            "c": 11.25672201,
            "alpha": 90.0,
            "beta": 90.0,
            "gamma": 90.0,
            "volume": 428.8278154223551
        },
        "sites": [
            {
                "species": [
                    {
                        "element": "Y",
                        "occu": 1
                    }
                ],
                "abc": [
                    0.13468211,
                    0.25,
                    0.44234986
                ],
                "xyz": [
                    1.3911586647565548,
                    0.9220283225,
                    4.979409405182419
                ],
                "label": "Y",
                "properties": {}
            },
            {
                "species": [
                    {
                        "element": "Y",
                        "occu": 1
                    }
                ],
                "abc": [
                    0.86531789,
                    0.75,
                    0.55765014
                ],
                "xyz": [
                    8.938042925243446,
                    2.7660849675,
                    6.277312604817582
                ],
                "label": "Y",
                "properties": {}
            },
            {
                "species": [
                    {
                        "element": "Y",
                        "occu": 1
                    }
                ],
                "abc": [
                    0.63468211,
                    0.25,
                    0.05765014
                ],
                "xyz": [
                    6.555759459756555,
                    0.9220283225,
                    0.6489515998175814
                ],
                "label": "Y",
                "properties": {}
            },
            {
                "species": [
                    {
                        "element": "Y",
                        "occu": 1
                    }
                ],
                "abc": [
                    0.36531789,
                    0.75,
                    0.94234986
                ],
                "xyz": [
                    3.773442130243445,
                    2.7660849675,
                    10.60777041018242
                ],
                "label": "Y",
                "properties": {}
            },
            {
                "species": [
                    {
                        "element": "Y",
                        "occu": 1
                    }
                ],
                "abc": [
                    0.11780671,
                    0.25,
                    0.77467455
                ],
                "xyz": [
                    1.2168492562446689,
                    0.9220283225,
                    8.720296057571845
                ],
                "label": "Y",
                "properties": {}
            },
            {
                "species": [
                    {
                        "element": "Y",
                        "occu": 1
                    }
                ],
                "abc": [
                    0.88219329,
                    0.75,
                    0.22532545
                ],
                "xyz": [
                    9.112352333755332,
                    2.7660849675,
                    2.536425952428155
                ],
                "label": "Y",
                "properties": {}
            },
            {
                "species": [
                    {
                        "element": "Y",
                        "occu": 1
                    }
                ],
                "abc": [
                    0.61780671,
                    0.25,
                    0.72532545
                ],
                "xyz": [
                    6.381450051244669,
                    0.9220283225,
                    8.164786957428156
                ],
                "label": "Y",
                "properties": {}
            },
            {
                "species": [
                    {
                        "element": "Y",
                        "occu": 1
                    }
                ],
                "abc": [
                    0.38219329,
                    0.75,
                    0.27467455
                ],
                "xyz": [
                    3.9477515387553312,
                    2.7660849675,
                    3.091935052571846
                ],
                "label": "Y",
                "properties": {}
            },
            {
                "species": [
                    {
                        "element": "Ti",
                        "occu": 1
                    }
                ],
                "abc": [
                    0.17202696,
                    0.25,
                    0.11667948
                ],
                "xyz": [
                    1.7769011487548665,
                    0.9220283225,
                    1.3134284706313548
                ],
                "label": "Ti",
                "properties": {}
            },
            {
                "species": [
                    {
                        "element": "Ti",
                        "occu": 1
                    }
                ],
                "abc": [
                    0.82797304,
                    0.75,
                    0.88332052
                ],
                "xyz": [
                    8.552300441245134,
                    2.7660849675,
                    9.943293539368646
                ],
                "label": "Ti",
                "properties": {}
            },
            {
                "species": [
                    {
                        "element": "Ti",
                        "occu": 1
                    }
                ],
                "abc": [
                    0.67202696,
                    0.25,
                    0.38332052
                ],
                "xyz": [
                    6.941501943754866,
                    0.9220283225,
                    4.314932534368645
                ],
                "label": "Ti",
                "properties": {}
            },
            {
                "species": [
                    {
                        "element": "Ti",
                        "occu": 1
                    }
                ],
                "abc": [
                    0.32797304,
                    0.75,
                    0.61667948
                ],
                "xyz": [
                    3.3876996462451334,
                    2.7660849675,
                    6.941789475631355
                ],
                "label": "Ti",
                "properties": {}
            },
            {
                "species": [
                    {
                        "element": "O",
                        "occu": 1
                    }
                ],
                "abc": [
                    0.26243664,
                    0.25,
                    0.61387013
                ],
                "xyz": [
                    2.7107609591622577,
                    0.9220283225,
                    6.910165403652562
                ],
                "label": "O",
                "properties": {}
            },
            {
                "species": [
                    {
                        "element": "O",
                        "occu": 1
                    }
                ],
                "abc": [
                    0.73756336,
                    0.75,
                    0.38612987
                ],
                "xyz": [
                    7.618440630837743,
                    2.7660849675,
                    4.346556606347439
                ],
                "label": "O",
                "properties": {}
            },
            {
                "species": [
                    {
                        "element": "O",
                        "occu": 1
                    }
                ],
                "abc": [
                    0.76243664,
                    0.25,
                    0.88612987
                ],
                "xyz": [
                    7.875361754162258,
                    0.9220283225,
                    9.97491761134744
                ],
                "label": "O",
                "properties": {}
            },
            {
                "species": [
                    {
                        "element": "O",
                        "occu": 1
                    }
                ],
                "abc": [
                    0.23756336,
                    0.75,
                    0.11387013
                ],
                "xyz": [
                    2.4538398358377425,
                    2.7660849675,
                    1.2818043986525613
                ],
                "label": "O",
                "properties": {}
            },
            {
                "species": [
                    {
                        "element": "O",
                        "occu": 1
                    }
                ],
                "abc": [
                    0.50076011,
                    0.25,
                    0.34433698
                ],
                "xyz": [
                    5.172452124420575,
                    0.9220283225,
                    3.87610566162293
                ],
                "label": "O",
                "properties": {}
            },
            {
                "species": [
                    {
                        "element": "O",
                        "occu": 1
                    }
                ],
                "abc": [
                    0.49923989,
                    0.75,
                    0.65566302
                ],
                "xyz": [
                    5.156749465579425,
                    2.7660849675,
                    7.38061634837707
                ],
                "label": "O",
                "properties": {}
            },
            {
                "species": [
                    {
                        "element": "O",
                        "occu": 1
                    }
                ],
                "abc": [
                    0.00076011,
                    0.25,
                    0.15566302
                ],
                "xyz": [
                    0.0078513294205749,
                    0.9220283225,
                    1.7522553433770705
                ],
                "label": "O",
                "properties": {}
            },
            {
                "species": [
                    {
                        "element": "O",
                        "occu": 1
                    }
                ],
                "abc": [
                    0.99923989,
                    0.75,
                    0.84433698
                ],
                "xyz": [
                    10.321350260579425,
                    2.7660849675,
                    9.50446666662293
                ],
                "label": "O",
                "properties": {}
            },
            {
                "species": [
                    {
                        "element": "O",
                        "occu": 1
                    }
                ],
                "abc": [
                    0.25402912,
                    0.25,
                    0.27019529
                ],
                "xyz": [
                    2.623917990210301,
                    0.9220283225,
                    3.041513267941333
                ],
                "label": "O",
                "properties": {}
            },
            {
                "species": [
                    {
                        "element": "O",
                        "occu": 1
                    }
                ],
                "abc": [
                    0.74597088,
                    0.75,
                    0.72980471
                ],
                "xyz": [
                    7.705283599789699,
                    2.7660849675,
                    8.215208742058667
                ],
                "label": "O",
                "properties": {}
            },
            {
                "species": [
                    {
                        "element": "O",
                        "occu": 1
                    }
                ],
                "abc": [
                    0.75402912,
                    0.25,
                    0.22980471
                ],
                "xyz": [
                    7.788518785210301,
                    0.9220283225,
                    2.586847737058667
                ],
                "label": "O",
                "properties": {}
            },
            {
                "species": [
                    {
                        "element": "O",
                        "occu": 1
                    }
                ],
                "abc": [
                    0.24597088,
                    0.75,
                    0.77019529
                ],
                "xyz": [
                    2.540682804789699,
                    2.7660849675,
                    8.669874272941334
                ],
                "label": "O",
                "properties": {}
            },
            {
                "species": [
                    {
                        "element": "O",
                        "occu": 1
                    }
                ],
                "abc": [
                    0.00521895,
                    0.75,
                    0.39563392
                ],
                "xyz": [
                    0.0539075866381305,
                    2.7660849675,
                    4.453541055166579
                ],
                "label": "O",
                "properties": {}
            },
            {
                "species": [
                    {
                        "element": "O",
                        "occu": 1
                    }
                ],
                "abc": [
                    0.99478105,
                    0.25,
                    0.60436608
                ],
                "xyz": [
                    10.27529400336187,
                    0.9220283225,
                    6.8031809548334214
                ],
                "label": "O",
                "properties": {}
            },
            {
                "species": [
                    {
                        "element": "O",
                        "occu": 1
                    }
                ],
                "abc": [
                    0.50521895,
                    0.75,
                    0.10436608
                ],
                "xyz": [
                    5.218508381638131,
                    2.7660849675,
                    1.1748199498334209
                ],
                "label": "O",
                "properties": {}
            },
            {
                "species": [
                    {
                        "element": "O",
                        "occu": 1
                    }
                ],
                "abc": [
                    0.49478105,
                    0.25,
                    0.89563392
                ],
                "xyz": [
                    5.1106932083618695,
                    0.9220283225,
                    10.081902060166579
                ],
                "label": "O",
                "properties": {}
            },
            {
                "species": [
                    {
                        "element": "O",
                        "occu": 1
                    }
                ],
                "abc": [
                    0.27385082,
                    0.75,
                    0.45276172
                ],
                "xyz": [
                    2.828660325366804,
                    2.7660849675,
                    5.096612818809457
                ],
                "label": "O",
                "properties": {}
            },
            {
                "species": [
                    {
                        "element": "O",
                        "occu": 1
                    }
                ],
                "abc": [
                    0.72614918,
                    0.25,
                    0.54723828
                ],
                "xyz": [
                    7.5005412646331955,
                    0.9220283225,
                    6.160109191190543
                ],
                "label": "O",
                "properties": {}
            },
            {
                "species": [
                    {
                        "element": "O",
                        "occu": 1
                    }
                ],
                "abc": [
                    0.77385082,
                    0.75,
                    0.04723828
                ],
                "xyz": [
                    7.993261120366805,
                    2.7660849675,
                    0.5317481861905429
                ],
                "label": "O",
                "properties": {}
            },
            {
                "species": [
                    {
                        "element": "O",
                        "occu": 1
                    }
                ],
                "abc": [
                    0.22614918,
                    0.25,
                    0.95276172
                ],
                "xyz": [
                    2.3359404696331962,
                    0.9220283225,
                    10.724973823809458
                ],
                "label": "O",
                "properties": {}
            }
        ]
    },
    "spacegroup": {
        "source": "spglib",
        "symbol": "Pnma",
        "number": 62,
        "point_group": "mmm",
        "crystal_system": "orthorhombic",
        "hall": "-P 2ac 2n"
    },
    "dielectric": {
        "epsilon_ionic": [
            [
                9.29121252,
                6e-08,
                -3e-08
            ],
            [
                6e-08,
                11.29654271,
                -5e-08
            ],
            [
                -3e-08,
                -5e-08,
                10.37877691
            ]
        ],
        "epsilon_ionic_avg": 10.32217738,
        "epsilon_ionic_eig": [
            9.291212519999998,
            11.296542710000002,
            10.37877691
        ],
        "epsilon_electronic": [
            [
                4.42346913,
                -0.0,
                0.0
            ],
            [
                -0.0,
                4.57520425,
                0.0
            ],
            [
                0.0,
                0.0,
                4.58835256
            ]
        ],
        "epsilon_electronic_avg": 4.529008646666667,
        "epsilon_electronic_eig": [
            4.42346913,
            4.57520425,
            4.58835256
        ]
    },
    "phonon": {
        "lowest_freq": -0.05466102009647977,
        "frequency": [
            -0.05466102009647977,
            -0.039365909333061555,
            -0.01031151333811962,
            2.382363426141118,
            2.7181522293051135,
            2.774738463938019,
            2.9899553266038277,
            3.157419093669314,
            3.197309880699944,
            3.244512270010874,
            3.7820780588644536,
            3.9094151080757396,
            4.038385192163753,
            4.058904202672408,
            4.085874201371568,
            4.087958659580075,
            4.094632639707967,
            4.295809493951439,
            4.500609770724736,
            4.856044607613022,
            5.163158514235894,
            5.234146337811092,
            5.3218298521977765,
            5.36709454460396,
            5.750727554688843,
            5.76403963996475,
            5.919712480952572,
            5.962431919988739,
            6.4909226668643205,
            6.575996546242341,
            6.73531527857413,
            6.955468980778892,
            7.277246482653434,
            7.291371466215961,
            7.484265584235568,
            7.554653913913141,
            7.579596025962632,
            7.793580690218324,
            7.821817334024539,
            7.8590040768288025,
            7.942425883799554,
            8.028404288302998,
            8.481067833491489,
            8.530687248105847,
            8.704977861428947,
            8.742676823540359,
            8.887498445402873,
            9.062245507099332,
            9.106134537141992,
            9.166542361899173,
            9.336085913324515,
            9.478995720901983,
            9.585336487898717,
            9.991307604870453,
            10.448526122346419,
            10.571618136269624,
            10.963818275917701,
            11.08528654786841,
            11.132757455846697,
            11.321846873010893,
            11.348759825126184,
            11.492861673159256,
            11.504303188018987,
            11.55586637191968,
            11.679940324142928,
            12.646117774184622,
            12.742083610614582,
            13.00598797644519,
            13.130984017469375,
            13.303556897917728,
            13.521441039470359,
            13.549011576702274,
            13.788196636750323,
            13.815227745170422,
            14.215862864035074,
            14.21709819823789,
            14.81092461485281,
            15.030221833048664,
            15.106508614002456,
            15.940409125658771,
            17.49578187194962,
            17.554364513105973,
            18.826216719152942,
            19.172090789577517,
            19.173260546915934,
            19.255654335975308,
            19.259317389939604,
            19.831131787323834,
            20.13684025532758,
            20.65624762047296,
            21.3835889024474,
            21.713743390678264,
            23.447977753324395,
            24.544070500538744,
            24.576657829334327,
            25.37710248286331
        ]
    },
    "born_effective_charge": {
        "avg_abs_trace": 3.0701577083333333,
        "tensors": [
            [
                [
                    3.79865,
                    0.0,
                    -0.31502
                ],
                [
                    0.00042,
                    3.82658,
                    0.00016
                ],
                [
                    0.05718,
                    0.0,
                    3.62171
                ]
            ],
            [
                [
                    3.79922,
                    -0.0,
                    -0.31488
                ],
                [
                    -0.00042,
                    3.82658,
                    -0.00016
                ],
                [
                    0.05688,
                    0.0,
                    3.62159
                ]
            ],
            [
                [
                    3.79865,
                    -0.0,
                    0.31502
                ],
                [
                    0.00042,
                    3.82658,
                    -0.00016
                ],
                [
                    -0.05688,
                    -0.0,
                    3.62159
                ]
            ],
            [
                [
                    3.79922,
                    -0.0,
                    0.31488
                ],
                [
                    -0.00042,
                    3.82658,
                    0.00016
                ],
                [
                    -0.05718,
                    0.0,
                    3.62171
                ]
            ],
            [
                [
                    4.19833,
                    -0.0,
                    -0.0842
                ],
                [
                    7e-05,
                    3.79675,
                    -0.00012
                ],
                [
                    0.41257,
                    -0.0,
                    4.06211
                ]
            ],
            [
                [
                    4.19838,
                    -0.0,
                    -0.08461
                ],
                [
                    -7e-05,
                    3.79675,
                    0.00012
                ],
                [
                    0.41275,
                    0.0,
                    4.06225
                ]
            ],
            [
                [
                    4.19833,
                    -0.0,
                    0.0842
                ],
                [
                    7e-05,
                    3.79675,
                    0.00012
                ],
                [
                    -0.41275,
                    0.0,
                    4.06225
                ]
            ],
            [
                [
                    4.19838,
                    -0.0,
                    0.08461
                ],
                [
                    -7e-05,
                    3.79675,
                    -0.00012
                ],
                [
                    -0.41257,
                    0.0,
                    4.06211
                ]
            ],
            [
                [
                    3.67096,
                    -0.0,
                    -0.13936
                ],
                [
                    0.00115,
                    5.15748,
                    0.00016
                ],
                [
                    -0.48129,
                    0.0,
                    4.70904
                ]
            ],
            [
                [
                    3.6711,
                    -0.0,
                    -0.13925
                ],
                [
                    -0.00115,
                    5.15748,
                    -0.00016
                ],
                [
                    -0.48149,
                    0.0,
                    4.70884
                ]
            ],
            [
                [
                    3.67096,
                    -0.0,
                    0.13936
                ],
                [
                    0.00115,
                    5.15748,
                    -0.00016
                ],
                [
                    0.48149,
                    0.0,
                    4.70884
                ]
            ],
            [
                [
                    3.6711,
                    -0.0,
                    0.13925
                ],
                [
                    -0.00115,
                    5.15748,
                    0.00016
                ],
                [
                    0.48129,
                    0.0,
                    4.70904
                ]
            ],
            [
                [
                    -1.56598,
                    -0.0,
                    0.07326
                ],
                [
                    0.00184,
                    -4.12805,
                    -1e-05
                ],
                [
                    -0.10151,
                    0.0,
                    -1.73033
                ]
            ],
            [
                [
                    -1.56603,
                    -0.0,
                    0.07337
                ],
                [
                    -0.00184,
                    -4.12805,
                    1e-05
                ],
                [
                    -0.10157,
                    0.0,
                    -1.73019
                ]
            ],
            [
                [
                    -1.56598,
                    -0.0,
                    -0.07326
                ],
                [
                    0.00184,
                    -4.12805,
                    1e-05
                ],
                [
                    0.10157,
                    0.0,
                    -1.73019
                ]
            ],
            [
                [
                    -1.56603,
                    -0.0,
                    -0.07337
                ],
                [
                    -0.00184,
                    -4.12805,
                    -1e-05
                ],
                [
                    0.10151,
                    0.0,
                    -1.73033
                ]
            ],
            [
                [
                    -3.53654,
                    -0.0,
                    -0.84781
                ],
                [
                    0.00035,
                    -1.80323,
                    0.00021
                ],
                [
                    -0.7897,
                    0.0,
                    -1.34144
                ]
            ],
            [
                [
                    -3.53662,
                    -0.0,
                    -0.84789
                ],
                [
                    -0.00035,
                    -1.80323,
                    -0.00021
                ],
                [
                    -0.78965,
                    0.0,
                    -1.3413
                ]
            ],
            [
                [
                    -3.53654,
                    -0.0,
                    0.84781
                ],
                [
                    0.00035,
                    -1.80323,
                    -0.00021
                ],
                [
                    0.78965,
                    0.0,
                    -1.3413
                ]
            ],
            [
                [
                    -3.53662,
                    -0.0,
                    0.84789
                ],
                [
                    -0.00035,
                    -1.80323,
                    0.00021
                ],
                [
                    0.7897,
                    0.0,
                    -1.34144
                ]
            ],
            [
                [
                    -2.18865,
                    -0.0,
                    -0.36757
                ],
                [
                    -0.00012,
                    -2.30745,
                    -4e-05
                ],
                [
                    -0.39798,
                    0.0,
                    -3.13116
                ]
            ],
            [
                [
                    -2.1886,
                    -0.0,
                    -0.36753
                ],
                [
                    0.00012,
                    -2.30745,
                    4e-05
                ],
                [
                    -0.39783,
                    0.0,
                    -3.13119
                ]
            ],
            [
                [
                    -2.18865,
                    -0.0,
                    0.36757
                ],
                [
                    -0.00012,
                    -2.30745,
                    4e-05
                ],
                [
                    0.39783,
                    0.0,
                    -3.13119
                ]
            ],
            [
                [
                    -2.1886,
                    -0.0,
                    0.36753
                ],
                [
                    0.00012,
                    -2.30745,
                    -4e-05
                ],
                [
                    0.39798,
                    0.0,
                    -3.13116
                ]
            ],
            [
                [
                    -2.48637,
                    0.0,
                    -0.05201
                ],
                [
                    -0.0006,
                    -2.35074,
                    -0.00031
                ],
                [
                    -0.42671,
                    0.0,
                    -2.50541
                ]
            ],
            [
                [
                    -2.48629,
                    -0.0,
                    -0.05196
                ],
                [
                    0.0006,
                    -2.35074,
                    0.00031
                ],
                [
                    -0.42674,
                    0.0,
                    -2.50548
                ]
            ],
            [
                [
                    -2.48637,
                    0.0,
                    0.05201
                ],
                [
                    -0.0006,
                    -2.35074,
                    0.00031
                ],
                [
                    0.42674,
                    0.0,
                    -2.50548
                ]
            ],
            [
                [
                    -2.48629,
                    -0.0,
                    0.05196
                ],
                [
                    0.0006,
                    -2.35074,
                    -0.00031
                ],
                [
                    0.42671,
                    0.0,
                    -2.50541
                ]
            ],
            [
                [
                    -1.89079,
                    -0.0,
                    -0.088
                ],
                [
                    -0.00015,
                    -2.19134,
                    -0.00019
                ],
                [
                    -0.33186,
                    0.0,
                    -3.68439
                ]
            ],
            [
                [
                    -1.89076,
                    -0.0,
                    -0.08771
                ],
                [
                    0.00015,
                    -2.19134,
                    0.00019
                ],
                [
                    -0.33194,
                    0.0,
                    -3.68463
                ]
            ],
            [
                [
                    -1.89079,
                    -0.0,
                    0.088
                ],
                [
                    -0.00015,
                    -2.19134,
                    0.00019
                ],
                [
                    0.33194,
                    0.0,
                    -3.68463
                ]
            ],
            [
                [
                    -1.89076,
                    -0.0,
                    0.08771
                ],
                [
                    0.00015,
                    -2.19134,
                    -0.00019
                ],
                [
                    0.33186,
                    0.0,
                    -3.68439
                ]
            ]
        ]
    },
    "band_gap": 3.6105,
    "is_direct": false,
    "formula": "Y2TiO5"
}