{
    "mp_id": "mp-19182",
    "nelements": 4,
    "nsites": 10,
    "elements": [
        "Ba",
        "Ca",
        "O",
        "W"
    ],
    "structure": {
        "@module": "pymatgen.core.structure",
        "@class": "Structure",
        "charge": null,
        "lattice": {
            "matrix": [
                [
                    -2.95385975,
                    2.95385974,
                    4.20795953
                ],
                [
                    2.95385975,
                    -2.95385974,
                    4.20795953
                ],
                [
                    2.95385974,
                    2.95385975,
                    -4.20795953
                ]
            ],
            "a": 5.929375868704965,
            "b": 5.929375868704965,
            "c": 5.929375868704965,
            "alpha": 120.24149327994816,
            "beta": 120.24149327994816,
            "gamma": 89.58222783459429,
            "volume": 146.86262495166562
        },
        "sites": [
            {
                "species": [
                    {
                        "element": "Ba",
                        "occu": 1
                    }
                ],
                "abc": [
                    0.75,
                    0.25,
                    0.5
                ],
                "xyz": [
                    -5.00000019165725e-09,
                    2.953859745,
                    2.103979765
                ],
                "label": "Ba",
                "properties": {}
            },
            {
                "species": [
                    {
                        "element": "Ba",
                        "occu": 1
                    }
                ],
                "abc": [
                    0.25,
                    0.75,
                    0.5
                ],
                "xyz": [
                    2.953859745,
                    5.00000019165725e-09,
                    2.103979765
                ],
                "label": "Ba",
                "properties": {}
            },
            {
                "species": [
                    {
                        "element": "Ca",
                        "occu": 1
                    }
                ],
                "abc": [
                    0.0,
                    0.0,
                    0.0
                ],
                "xyz": [
                    0.0,
                    0.0,
                    0.0
                ],
                "label": "Ca",
                "properties": {}
            },
            {
                "species": [
                    {
                        "element": "W",
                        "occu": 1
                    }
                ],
                "abc": [
                    0.5,
                    0.5,
                    0.0
                ],
                "xyz": [
                    0.0,
                    0.0,
                    4.20795953
                ],
                "label": "W",
                "properties": {}
            },
            {
                "species": [
                    {
                        "element": "O",
                        "occu": 1
                    }
                ],
                "abc": [
                    0.75807792,
                    0.70028752,
                    0.45836544
                ],
                "xyz": [
                    1.183242482926986,
                    1.5246519599255357,
                    4.20795953
                ],
                "label": "O",
                "properties": {}
            },
            {
                "species": [
                    {
                        "element": "O",
                        "occu": 1
                    }
                ],
                "abc": [
                    0.29971248,
                    0.75807792,
                    0.0577914
                ],
                "xyz": [
                    1.5246549137852758,
                    -1.1832395290672355,
                    4.20795532204047
                ],
                "label": "O",
                "properties": {}
            },
            {
                "species": [
                    {
                        "element": "O",
                        "occu": 1
                    }
                ],
                "abc": [
                    0.70028752,
                    0.24192208,
                    0.9422086
                ],
                "xyz": [
                    1.429204826214724,
                    4.137099279067235,
                    4.207959530599936e-06
                ],
                "label": "O",
                "properties": {}
            },
            {
                "species": [
                    {
                        "element": "O",
                        "occu": 1
                    }
                ],
                "abc": [
                    0.24192208,
                    0.29971248,
                    0.54163456
                ],
                "xyz": [
                    1.770617257073014,
                    1.429207790074464,
                    4.440892098500626e-16
                ],
                "label": "O",
                "properties": {}
            },
            {
                "species": [
                    {
                        "element": "O",
                        "occu": 1
                    }
                ],
                "abc": [
                    0.72959737,
                    0.72959737,
                    0.0
                ],
                "xyz": [
                    0.0,
                    0.0,
                    6.1402324123088725
                ],
                "label": "O",
                "properties": {}
            },
            {
                "species": [
                    {
                        "element": "O",
                        "occu": 1
                    }
                ],
                "abc": [
                    0.27040263,
                    0.27040263,
                    0.0
                ],
                "xyz": [
                    0.0,
                    0.0,
                    2.2756866476911277
                ],
                "label": "O",
                "properties": {}
            }
        ]
    },
    "spacegroup": {
        "source": "spglib",
        "symbol": "I4/m",
        "number": 87,
        "point_group": "4/m",
        "crystal_system": "tetragonal",
        "hall": "-I 4"
    },
    "dielectric": {
        "epsilon_ionic": [
            [
                20.94401355,
                -0.00178075,
                -3e-08
            ],
            [
                -0.00178075,
                20.94323375,
                -0.0
            ],
            [
                -3e-08,
                -0.0,
                18.3940399
            ]
        ],
        "epsilon_ionic_avg": 20.0937624,
        "epsilon_ionic_eig": [
            20.945446585153128,
            20.941800714846877,
            18.394039899999996
        ],
        "epsilon_electronic": [
            [
                4.50762064,
                1.745e-05,
                0.0
            ],
            [
                -1.745e-05,
                4.50762064,
                -0.0
            ],
            [
                0.0,
                0.0,
                4.55939452
            ]
        ],
        "epsilon_electronic_avg": 4.5248786,
        "epsilon_electronic_eig": [
            4.50762064,
            4.50762064,
            4.55939452
        ]
    },
    "phonon": {
        "lowest_freq": -0.030787006276955922,
        "frequency": [
            -0.030787006276955922,
            -0.030787006276955922,
            -0.025715468844222215,
            1.3387604259689385,
            1.3387604259689385,
            3.0495631446017946,
            3.0495631446017946,
            3.1035066937770073,
            3.1035066937770073,
            3.1627015006257184,
            3.3416481610591937,
            3.456165057406852,
            6.340240367110301,
            6.340240367110301,
            6.918590314149271,
            7.633825167426095,
            7.633825167426095,
            7.689353051276138,
            9.249912861888424,
            9.25320416574047,
            9.25320416574047,
            12.030636985220225,
            12.100915822850705,
            12.100915822850705,
            17.181530336698682,
            17.234158577222967,
            17.528954528768082,
            17.528954528768082,
            17.642381691961614,
            23.816773879216623
        ]
    },
    "born_effective_charge": {
        "avg_abs_trace": 3.1156896666666665,
        "tensors": [
            [
                [
                    2.72567,
                    0.05132,
                    7e-05
                ],
                [
                    -0.05146,
                    2.72565,
                    -6e-05
                ],
                [
                    -0.0,
                    0.0,
                    2.84762
                ]
            ],
            [
                [
                    2.72567,
                    0.05132,
                    -7e-05
                ],
                [
                    -0.05146,
                    2.72565,
                    6e-05
                ],
                [
                    -0.0,
                    0.0,
                    2.84762
                ]
            ],
            [
                [
                    3.16607,
                    -0.15267,
                    0.0
                ],
                [
                    0.15243,
                    3.16605,
                    0.0
                ],
                [
                    -0.0,
                    0.0,
                    3.20012
                ]
            ],
            [
                [
                    6.88633,
                    -0.14076,
                    0.0
                ],
                [
                    0.13977,
                    6.88627,
                    0.0
                ],
                [
                    -0.0,
                    0.0,
                    6.83266
                ]
            ],
            [
                [
                    -2.65386,
                    -1.09157,
                    0.0
                ],
                [
                    -1.15312,
                    -3.26983,
                    -0.0
                ],
                [
                    -3e-05,
                    0.0,
                    -1.87519
                ]
            ],
            [
                [
                    -3.26985,
                    1.15298,
                    0.0
                ],
                [
                    1.09196,
                    -2.65438,
                    0.0
                ],
                [
                    0.0,
                    3e-05,
                    -1.87519
                ]
            ],
            [
                [
                    -3.26999,
                    1.15349,
                    0.0
                ],
                [
                    1.0915,
                    -2.65412,
                    0.0
                ],
                [
                    -0.0,
                    -3e-05,
                    -1.87519
                ]
            ],
            [
                [
                    -2.65415,
                    -1.09137,
                    -0.0
                ],
                [
                    -1.15312,
                    -3.26961,
                    -0.0
                ],
                [
                    3e-05,
                    -0.0,
                    -1.87519
                ]
            ],
            [
                [
                    -1.82793,
                    0.03363,
                    0.0001
                ],
                [
                    -0.03325,
                    -1.82783,
                    3e-05
                ],
                [
                    -0.0,
                    0.0,
                    -4.11364
                ]
            ],
            [
                [
                    -1.82793,
                    0.03363,
                    -0.0001
                ],
                [
                    -0.03325,
                    -1.82783,
                    -3e-05
                ],
                [
                    -0.0,
                    0.0,
                    -4.1136
                ]
            ]
        ]
    },
    "band_gap": 3.0657,
    "is_direct": false,
    "formula": "Ba2CaWO6"
}