{
    "mp_id": "mp-1209350",
    "nelements": 4,
    "nsites": 14,
    "elements": [
        "O",
        "Rb",
        "V",
        "Y"
    ],
    "structure": {
        "@module": "pymatgen.core.structure",
        "@class": "Structure",
        "charge": null,
        "lattice": {
            "matrix": [
                [
                    5.98990314,
                    -0.0,
                    0.0
                ],
                [
                    -2.99495107,
                    5.18740852,
                    0.0
                ],
                [
                    0.0,
                    0.0,
                    7.80502092
                ]
            ],
            "a": 5.98990314,
            "b": 5.989903093127863,
            "c": 7.80502092,
            "alpha": 90.0,
            "beta": 90.0,
            "gamma": 119.99999473627292,
            "volume": 242.5181921435162
        },
        "sites": [
            {
                "species": [
                    {
                        "element": "Rb",
                        "occu": 1
                    }
                ],
                "abc": [
                    0.333333,
                    0.666667,
                    0.69563769
                ],
                "xyz": [
                    -2.6616180701655168e-06,
                    3.45827407580284,
                    5.429466723190474
                ],
                "label": "Rb",
                "properties": {}
            },
            {
                "species": [
                    {
                        "element": "Rb",
                        "occu": 1
                    }
                ],
                "abc": [
                    0.666667,
                    0.333333,
                    0.30436231
                ],
                "xyz": [
                    2.99495473161807,
                    1.72913444419716,
                    2.3755541968095253
                ],
                "label": "Rb",
                "properties": {}
            },
            {
                "species": [
                    {
                        "element": "Rb",
                        "occu": 1
                    }
                ],
                "abc": [
                    0.0,
                    0.0,
                    0.0
                ],
                "xyz": [
                    0.0,
                    0.0,
                    0.0
                ],
                "label": "Rb",
                "properties": {}
            },
            {
                "species": [
                    {
                        "element": "Y",
                        "occu": 1
                    }
                ],
                "abc": [
                    0.0,
                    0.0,
                    0.5
                ],
                "xyz": [
                    0.0,
                    0.0,
                    3.90251046
                ],
                "label": "Y",
                "properties": {}
            },
            {
                "species": [
                    {
                        "element": "V",
                        "occu": 1
                    }
                ],
                "abc": [
                    0.333333,
                    0.666667,
                    0.25447098
                ],
                "xyz": [
                    -2.6616180701655168e-06,
                    3.45827407580284,
                    1.9861513224329015
                ],
                "label": "V",
                "properties": {}
            },
            {
                "species": [
                    {
                        "element": "V",
                        "occu": 1
                    }
                ],
                "abc": [
                    0.666667,
                    0.333333,
                    0.74552902
                ],
                "xyz": [
                    2.99495473161807,
                    1.72913444419716,
                    5.818869597567098
                ],
                "label": "V",
                "properties": {}
            },
            {
                "species": [
                    {
                        "element": "O",
                        "occu": 1
                    }
                ],
                "abc": [
                    0.333333,
                    0.666667,
                    0.04117965
                ],
                "xyz": [
                    -2.6616180701655168e-06,
                    3.45827407580284,
                    0.321408029728278
                ],
                "label": "O",
                "properties": {}
            },
            {
                "species": [
                    {
                        "element": "O",
                        "occu": 1
                    }
                ],
                "abc": [
                    0.666667,
                    0.333333,
                    0.95882035
                ],
                "xyz": [
                    2.99495473161807,
                    1.72913444419716,
                    7.483612890271721
                ],
                "label": "O",
                "properties": {}
            },
            {
                "species": [
                    {
                        "element": "O",
                        "occu": 1
                    }
                ],
                "abc": [
                    0.17444119,
                    0.82555881,
                    0.33048362
                ],
                "xyz": [
                    -1.4276224096310899,
                    4.282510804755061,
                    2.57943156781733
                ],
                "label": "O",
                "properties": {}
            },
            {
                "species": [
                    {
                        "element": "O",
                        "occu": 1
                    }
                ],
                "abc": [
                    0.82555881,
                    0.17444119,
                    0.66951638
                ],
                "xyz": [
                    4.42257447963109,
                    0.9048977152449388,
                    5.225589352182669
                ],
                "label": "O",
                "properties": {}
            },
            {
                "species": [
                    {
                        "element": "O",
                        "occu": 1
                    }
                ],
                "abc": [
                    0.17444119,
                    0.34888138,
                    0.33048362
                ],
                "xyz": [
                    3.169392259971815e-06,
                    1.8097902430813577,
                    2.57943156781733
                ],
                "label": "O",
                "properties": {}
            },
            {
                "species": [
                    {
                        "element": "O",
                        "occu": 1
                    }
                ],
                "abc": [
                    0.82555881,
                    0.65111862,
                    0.66951638
                ],
                "xyz": [
                    2.9949489006077403,
                    3.3776182769186422,
                    5.225589352182669
                ],
                "label": "O",
                "properties": {}
            },
            {
                "species": [
                    {
                        "element": "O",
                        "occu": 1
                    }
                ],
                "abc": [
                    0.65111862,
                    0.82555881,
                    0.33048362
                ],
                "xyz": [
                    1.4276292250930402,
                    4.282510804755061,
                    2.57943156781733
                ],
                "label": "O",
                "properties": {}
            },
            {
                "species": [
                    {
                        "element": "O",
                        "occu": 1
                    }
                ],
                "abc": [
                    0.34888138,
                    0.17444119,
                    0.66951638
                ],
                "xyz": [
                    1.56732284490696,
                    0.9048977152449388,
                    5.225589352182669
                ],
                "label": "O",
                "properties": {}
            }
        ]
    },
    "spacegroup": {
        "source": "spglib",
        "symbol": "P-3m1",
        "number": 164,
        "point_group": "-3m",
        "crystal_system": "trigonal",
        "hall": "-P 3 2\""
    },
    "dielectric": {
        "epsilon_ionic": [
            [
                13.88641136,
                2.47e-06,
                0.0
            ],
            [
                2.47e-06,
                13.87357156,
                0.00017372
            ],
            [
                0.0,
                0.00017372,
                5.08298542
            ]
        ],
        "epsilon_ionic_avg": 10.947656113333336,
        "epsilon_ionic_eig": [
            13.886411360475162,
            13.873571562957911,
            5.082985416566936
        ],
        "epsilon_electronic": [
            [
                3.45005528,
                -3.3e-07,
                -0.0
            ],
            [
                -3.3e-07,
                3.45005507,
                -0.0
            ],
            [
                0.0,
                0.0,
                3.34355156
            ]
        ],
        "epsilon_electronic_avg": 3.41455397,
        "epsilon_electronic_eig": [
            3.4500555213018913,
            3.4500548286981085,
            3.34355156
        ]
    },
    "phonon": {
        "lowest_freq": -0.2604868465910337,
        "frequency": [
            -0.2604868465910337,
            -0.26048682032021,
            -0.06504536542594624,
            0.6505540775075846,
            0.6505541413731752,
            0.7465262048006415,
            0.7465262555450345,
            2.3783120317072144,
            2.4220085694641518,
            2.548889673398219,
            2.5488898555795965,
            3.092219946852891,
            3.092220227434623,
            3.1970453706683575,
            3.505842144629155,
            3.505842482733534,
            3.5078174876449855,
            4.4145575540077235,
            4.414557999674347,
            4.427945864039825,
            5.731631821876814,
            5.952623613068194,
            5.952624187873844,
            7.127210928571083,
            8.740829414460691,
            8.74082965212705,
            9.529453576330399,
            9.529453794328322,
            10.241801351937138,
            10.367612099805537,
            10.648896734523095,
            10.648897285341002,
            10.756228196554726,
            10.756228787319733,
            22.29074983776588,
            22.290751317932177,
            22.41867797077922,
            22.41867949700736,
            24.08778882992598,
            25.581137645944413,
            27.164038318716344,
            28.05530872989385
        ]
    },
    "born_effective_charge": {
        "avg_abs_trace": 2.251627380952381,
        "tensors": [
            [
                [
                    1.1858,
                    -1e-05,
                    -2e-05
                ],
                [
                    0.0,
                    1.18538,
                    -2e-05
                ],
                [
                    -0.0,
                    0.0,
                    1.34254
                ]
            ],
            [
                [
                    1.1858,
                    1e-05,
                    2e-05
                ],
                [
                    0.0,
                    1.18543,
                    3e-05
                ],
                [
                    -0.0,
                    0.0,
                    1.34266
                ]
            ],
            [
                [
                    1.28851,
                    0.0,
                    0.0
                ],
                [
                    0.0,
                    1.2879,
                    -0.0002
                ],
                [
                    -0.0,
                    0.0,
                    1.31606
                ]
            ],
            [
                [
                    5.33961,
                    0.0,
                    0.0
                ],
                [
                    -0.0,
                    5.3399,
                    0.00087
                ],
                [
                    -0.0,
                    0.0,
                    4.27373
                ]
            ],
            [
                [
                    3.5534,
                    -0.00042,
                    3e-05
                ],
                [
                    -0.0,
                    3.55389,
                    0.0001
                ],
                [
                    -0.0,
                    0.0,
                    3.39892
                ]
            ],
            [
                [
                    3.5534,
                    0.00042,
                    -3e-05
                ],
                [
                    -0.0,
                    3.55369,
                    0.00019
                ],
                [
                    -0.0,
                    0.0,
                    3.39756
                ]
            ],
            [
                [
                    -0.67701,
                    7e-05,
                    0.0
                ],
                [
                    -0.0,
                    -0.67668,
                    -0.00012
                ],
                [
                    -0.0,
                    0.0,
                    -3.17488
                ]
            ],
            [
                [
                    -0.67701,
                    -7e-05,
                    -0.0
                ],
                [
                    -0.0,
                    -0.67676,
                    -0.00011
                ],
                [
                    -0.0,
                    0.0,
                    -3.17341
                ]
            ],
            [
                [
                    -3.11982,
                    1.14533,
                    1.12499
                ],
                [
                    1.14487,
                    -1.79784,
                    -0.64946
                ],
                [
                    0.92249,
                    -0.5326,
                    -1.45388
                ]
            ],
            [
                [
                    -3.12014,
                    1.14471,
                    1.1248
                ],
                [
                    1.14485,
                    -1.79772,
                    -0.64947
                ],
                [
                    0.92226,
                    -0.53247,
                    -1.45385
                ]
            ],
            [
                [
                    -1.13628,
                    0.00012,
                    -0.00023
                ],
                [
                    0.0,
                    -3.78086,
                    1.29858
                ],
                [
                    -0.0,
                    1.06519,
                    -1.45388
                ]
            ],
            [
                [
                    -1.13628,
                    -0.00012,
                    0.00023
                ],
                [
                    0.0,
                    -3.78077,
                    1.29855
                ],
                [
                    -0.0,
                    1.06494,
                    -1.45385
                ]
            ],
            [
                [
                    -3.12014,
                    -1.14471,
                    -1.1248
                ],
                [
                    -1.14487,
                    -1.79784,
                    -0.64946
                ],
                [
                    -0.92249,
                    -0.5326,
                    -1.45388
                ]
            ],
            [
                [
                    -3.11982,
                    -1.14533,
                    -1.12499
                ],
                [
                    -1.14485,
                    -1.79772,
                    -0.64947
                ],
                [
                    -0.92226,
                    -0.53247,
                    -1.45385
                ]
            ]
        ]
    },
    "band_gap": 3.4425,
    "is_direct": false,
    "formula": "Rb3YV2O8"
}