{
    "mp_id": "mp-11020",
    "nelements": 3,
    "nsites": 8,
    "elements": [
        "Ag",
        "Ga",
        "O"
    ],
    "structure": {
        "@module": "pymatgen.core.structure",
        "@class": "Structure",
        "charge": null,
        "lattice": {
            "matrix": [
                [
                    2.98504394,
                    0.0,
                    0.0
                ],
                [
                    -1.49252147,
                    2.58512384,
                    0.0
                ],
                [
                    0.0,
                    0.0,
                    12.30626931
                ]
            ],
            "a": 2.98504394,
            "b": 2.9850436523688066,
            "c": 12.30626931,
            "alpha": 90.0,
            "beta": 90.0,
            "gamma": 119.9999921056533,
            "volume": 94.96388994493681
        },
        "sites": [
            {
                "species": [
                    {
                        "element": "Ga",
                        "occu": 1
                    }
                ],
                "abc": [
                    0.0,
                    0.0,
                    0.0
                ],
                "xyz": [
                    0.0,
                    0.0,
                    0.0
                ],
                "label": "Ga",
                "properties": {}
            },
            {
                "species": [
                    {
                        "element": "Ga",
                        "occu": 1
                    }
                ],
                "abc": [
                    0.0,
                    0.0,
                    0.5
                ],
                "xyz": [
                    0.0,
                    0.0,
                    6.153134655
                ],
                "label": "Ga",
                "properties": {}
            },
            {
                "species": [
                    {
                        "element": "Ag",
                        "occu": 1
                    }
                ],
                "abc": [
                    0.666667,
                    0.333333,
                    0.75
                ],
                "xyz": [
                    1.49252362918847,
                    0.86170708495872,
                    9.2297019825
                ],
                "label": "Ag",
                "properties": {}
            },
            {
                "species": [
                    {
                        "element": "Ag",
                        "occu": 1
                    }
                ],
                "abc": [
                    0.333333,
                    0.666667,
                    0.25
                ],
                "xyz": [
                    -1.159188469990191e-06,
                    1.72341675504128,
                    3.0765673275
                ],
                "label": "Ag",
                "properties": {}
            },
            {
                "species": [
                    {
                        "element": "O",
                        "occu": 1
                    }
                ],
                "abc": [
                    0.333333,
                    0.666667,
                    0.41790463
                ],
                "xyz": [
                    -1.159188469990191e-06,
                    1.72341675504128,
                    5.142846922675905
                ],
                "label": "O",
                "properties": {}
            },
            {
                "species": [
                    {
                        "element": "O",
                        "occu": 1
                    }
                ],
                "abc": [
                    0.666667,
                    0.333333,
                    0.91790463
                ],
                "xyz": [
                    1.49252362918847,
                    0.86170708495872,
                    11.295981577675905
                ],
                "label": "O",
                "properties": {}
            },
            {
                "species": [
                    {
                        "element": "O",
                        "occu": 1
                    }
                ],
                "abc": [
                    0.333333,
                    0.666667,
                    0.08209537
                ],
                "xyz": [
                    -1.159188469990191e-06,
                    1.72341675504128,
                    1.0102877323240946
                ],
                "label": "O",
                "properties": {}
            },
            {
                "species": [
                    {
                        "element": "O",
                        "occu": 1
                    }
                ],
                "abc": [
                    0.666667,
                    0.333333,
                    0.58209537
                ],
                "xyz": [
                    1.49252362918847,
                    0.86170708495872,
                    7.163422387324094
                ],
                "label": "O",
                "properties": {}
            }
        ]
    },
    "spacegroup": {
        "source": "spglib",
        "symbol": "P6_3/mmc",
        "number": 194,
        "point_group": "6/mmm",
        "crystal_system": "hexagonal",
        "hall": "-P 6c 2c"
    },
    "dielectric": {
        "epsilon_ionic": [
            [
                6.34752304,
                -0.0,
                0.0
            ],
            [
                -0.0,
                6.34744932,
                0.0
            ],
            [
                0.0,
                0.0,
                2.71509228
            ]
        ],
        "epsilon_ionic_avg": 5.136688213333334,
        "epsilon_ionic_eig": [
            6.34752304,
            6.34744932,
            2.71509228
        ],
        "epsilon_electronic": [
            [
                5.49300969,
                0.0,
                0.0
            ],
            [
                -0.0,
                5.49300996,
                0.0
            ],
            [
                0.0,
                0.0,
                5.52428322
            ]
        ],
        "epsilon_electronic_avg": 5.50343429,
        "epsilon_electronic_eig": [
            5.49300969,
            5.49300996,
            5.52428322
        ]
    },
    "phonon": {
        "lowest_freq": -0.017965531371168592,
        "frequency": [
            -0.017965531371168592,
            -0.01666226054461581,
            -0.016662260104579232,
            1.0449975156527387,
            1.0449975413791293,
            1.6363108655509955,
            1.6363109103591307,
            2.3108283583428046,
            2.310828416512452,
            5.549619127489486,
            6.130316655786184,
            8.644313538552852,
            10.367350985469855,
            10.367351244784063,
            10.411687244866787,
            10.411687514813572,
            10.645011864476846,
            10.64501213998631,
            10.732135435036426,
            10.732135708309304,
            16.394046683994496,
            19.193932692244715,
            19.43663333430122,
            20.398821463680996
        ]
    },
    "born_effective_charge": {
        "avg_abs_trace": 2.1467662499999998,
        "tensors": [
            [
                [
                    3.41772,
                    -0.0,
                    0.0
                ],
                [
                    -0.0,
                    3.41776,
                    0.00018
                ],
                [
                    0.0,
                    0.0,
                    2.70027
                ]
            ],
            [
                [
                    3.41772,
                    -0.0,
                    0.0
                ],
                [
                    -0.0,
                    3.41776,
                    -0.00018
                ],
                [
                    0.0,
                    -0.0,
                    2.70027
                ]
            ],
            [
                [
                    0.74554,
                    -3e-05,
                    0.0
                ],
                [
                    -0.0,
                    0.74553,
                    0.0
                ],
                [
                    -0.0,
                    -0.0,
                    1.8538
                ]
            ],
            [
                [
                    0.74554,
                    3e-05,
                    0.0
                ],
                [
                    0.0,
                    0.74548,
                    0.0
                ],
                [
                    0.0,
                    0.0,
                    1.8538
                ]
            ],
            [
                [
                    -2.08163,
                    0.00017,
                    6e-05
                ],
                [
                    -0.0,
                    -2.08167,
                    0.00045
                ],
                [
                    0.0,
                    -0.0,
                    -2.27702
                ]
            ],
            [
                [
                    -2.08163,
                    -0.00017,
                    6e-05
                ],
                [
                    0.0,
                    -2.08159,
                    0.00027
                ],
                [
                    -0.0,
                    -0.0,
                    -2.27702
                ]
            ],
            [
                [
                    -2.08163,
                    0.00017,
                    -6e-05
                ],
                [
                    -0.0,
                    -2.08167,
                    -0.00045
                ],
                [
                    0.0,
                    -0.0,
                    -2.27706
                ]
            ],
            [
                [
                    -2.08163,
                    -0.00017,
                    -6e-05
                ],
                [
                    0.0,
                    -2.08159,
                    -0.00027
                ],
                [
                    -0.0,
                    0.0,
                    -2.27706
                ]
            ]
        ]
    },
    "band_gap": 1.0903,
    "is_direct": false,
    "formula": "GaAgO2"
}