{
    "mp_id": "mp-1178513",
    "nelements": 3,
    "nsites": 5,
    "elements": [
        "Ba",
        "O",
        "Sn"
    ],
    "structure": {
        "@module": "pymatgen.core.structure",
        "@class": "Structure",
        "charge": null,
        "lattice": {
            "matrix": [
                [
                    4.13679922,
                    0.0,
                    0.0
                ],
                [
                    0.0,
                    4.13679922,
                    0.0
                ],
                [
                    0.0,
                    0.0,
                    4.13679922
                ]
            ],
            "a": 4.13679922,
            "b": 4.13679922,
            "c": 4.13679922,
            "alpha": 90.0,
            "beta": 90.0,
            "gamma": 90.0,
            "volume": 70.79349094335224
        },
        "sites": [
            {
                "species": [
                    {
                        "element": "Ba",
                        "occu": 1
                    }
                ],
                "abc": [
                    0.0,
                    0.0,
                    0.0
                ],
                "xyz": [
                    0.0,
                    0.0,
                    0.0
                ],
                "label": "Ba",
                "properties": {}
            },
            {
                "species": [
                    {
                        "element": "Sn",
                        "occu": 1
                    }
                ],
                "abc": [
                    0.5,
                    0.5,
                    0.5
                ],
                "xyz": [
                    2.06839961,
                    2.06839961,
                    2.06839961
                ],
                "label": "Sn",
                "properties": {}
            },
            {
                "species": [
                    {
                        "element": "O",
                        "occu": 1
                    }
                ],
                "abc": [
                    0.0,
                    0.5,
                    0.5
                ],
                "xyz": [
                    0.0,
                    2.06839961,
                    2.06839961
                ],
                "label": "O",
                "properties": {}
            },
            {
                "species": [
                    {
                        "element": "O",
                        "occu": 1
                    }
                ],
                "abc": [
                    0.5,
                    0.0,
                    0.5
                ],
                "xyz": [
                    2.06839961,
                    0.0,
                    2.06839961
                ],
                "label": "O",
                "properties": {}
            },
            {
                "species": [
                    {
                        "element": "O",
                        "occu": 1
                    }
                ],
                "abc": [
                    0.5,
                    0.5,
                    0.0
                ],
                "xyz": [
                    2.06839961,
                    2.06839961,
                    0.0
                ],
                "label": "O",
                "properties": {}
            }
        ]
    },
    "spacegroup": {
        "source": "spglib",
        "symbol": "Pm-3m",
        "number": 221,
        "point_group": "m-3m",
        "crystal_system": "cubic",
        "hall": "-P 4 2 3"
    },
    "dielectric": {
        "epsilon_ionic": [
            [
                15.56950697,
                0.0,
                0.0
            ],
            [
                0.0,
                15.56951076,
                -0.0
            ],
            [
                0.0,
                -0.0,
                15.56950454
            ]
        ],
        "epsilon_ionic_avg": 15.569507423333334,
        "epsilon_ionic_eig": [
            15.56950697,
            15.56951076,
            15.56950454
        ],
        "epsilon_electronic": [
            [
                4.85495624,
                0.0,
                -0.0
            ],
            [
                -0.0,
                4.85495624,
                -0.0
            ],
            [
                0.0,
                0.0,
                4.85495624
            ]
        ],
        "epsilon_electronic_avg": 4.85495624,
        "epsilon_electronic_eig": [
            4.85495624,
            4.85495624,
            4.85495624
        ]
    },
    "phonon": {
        "lowest_freq": -0.03560194889061658,
        "frequency": [
            -0.03560194889061658,
            -0.03560194889061658,
            -0.03560194889061658,
            3.7747176320294824,
            3.7747176320294824,
            3.7747176320294824,
            6.065943624138457,
            6.065943624138457,
            6.065943624138457,
            6.718021272657812,
            6.718021272657812,
            6.718021272657812,
            18.179879580862927,
            18.179879580862927,
            18.179879580862927
        ]
    },
    "born_effective_charge": {
        "avg_abs_trace": 2.850316,
        "tensors": [
            [
                [
                    2.7187,
                    -0.0,
                    0.0
                ],
                [
                    0.0,
                    2.7187,
                    0.0
                ],
                [
                    -0.0,
                    0.0,
                    2.7187
                ]
            ],
            [
                [
                    4.40709,
                    -0.0,
                    -0.0
                ],
                [
                    -0.0,
                    4.40709,
                    -0.0
                ],
                [
                    -0.0,
                    0.0,
                    4.40709
                ]
            ],
            [
                [
                    -3.38827,
                    0.0,
                    -0.0
                ],
                [
                    0.0,
                    -1.86876,
                    0.0
                ],
                [
                    -0.0,
                    -0.0,
                    -1.86876
                ]
            ],
            [
                [
                    -1.86876,
                    0.0,
                    0.0
                ],
                [
                    0.0,
                    -3.38827,
                    0.0
                ],
                [
                    0.0,
                    0.0,
                    -1.86876
                ]
            ],
            [
                [
                    -1.86876,
                    -0.0,
                    -0.0
                ],
                [
                    0.0,
                    -1.86876,
                    0.0
                ],
                [
                    -0.0,
                    0.0,
                    -3.38827
                ]
            ]
        ]
    },
    "band_gap": 0.6976999999999998,
    "is_direct": false,
    "formula": "BaSnO3"
}