{
    "mp_id": "mp-1194165",
    "nelements": 4,
    "nsites": 27,
    "elements": [
        "B",
        "Ba",
        "Ge",
        "O"
    ],
    "structure": {
        "@module": "pymatgen.core.structure",
        "@class": "Structure",
        "charge": null,
        "lattice": {
            "matrix": [
                [
                    5.11138438,
                    -0.00013728,
                    0.0002699
                ],
                [
                    0.17360049,
                    7.66423349,
                    0.0007016
                ],
                [
                    1.92232354,
                    1.85970934,
                    8.24312478
                ]
            ],
            "a": 5.1113843889693715,
            "b": 7.666199358978893,
            "c": 8.666195979804023,
            "alpha": 77.31160624244218,
            "beta": 77.18151626188802,
            "gamma": 88.70396915995043,
            "volume": 322.91275966867755
        },
        "sites": [
            {
                "species": [
                    {
                        "element": "Ba",
                        "occu": 1
                    }
                ],
                "abc": [
                    0.5,
                    0.5,
                    0.0
                ],
                "xyz": [
                    2.642492435,
                    3.832048105,
                    0.00048575
                ],
                "label": "Ba",
                "properties": {}
            },
            {
                "species": [
                    {
                        "element": "Ba",
                        "occu": 1
                    }
                ],
                "abc": [
                    0.3853563,
                    0.92022904,
                    0.25540355
                ],
                "xyz": [
                    2.6204246411753904,
                    7.527773692529843,
                    2.106072972264803
                ],
                "label": "Ba",
                "properties": {}
            },
            {
                "species": [
                    {
                        "element": "Ba",
                        "occu": 1
                    }
                ],
                "abc": [
                    0.6146437,
                    0.07977096,
                    0.74459645
                ],
                "xyz": [
                    4.58688376882461,
                    1.9960318574701572,
                    6.138023307735197
                ],
                "label": "Ba",
                "properties": {}
            },
            {
                "species": [
                    {
                        "element": "Ge",
                        "occu": 1
                    }
                ],
                "abc": [
                    0.77997821,
                    0.66953508,
                    0.55666813
                ],
                "xyz": [
                    5.1730963075613285,
                    6.166607028098495,
                    4.589365118570269
                ],
                "label": "Ge",
                "properties": {}
            },
            {
                "species": [
                    {
                        "element": "Ge",
                        "occu": 1
                    }
                ],
                "abc": [
                    0.22002179,
                    0.33046492,
                    0.44333187
                ],
                "xyz": [
                    2.034212102438671,
                    3.3571985219015055,
                    3.6547311614297318
                ],
                "label": "Ge",
                "properties": {}
            },
            {
                "species": [
                    {
                        "element": "B",
                        "occu": 1
                    }
                ],
                "abc": [
                    0.19909766,
                    0.74456396,
                    0.70454694
                ],
                "xyz": [
                    2.5012885055078584,
                    7.016737230338675,
                    5.808244462319943
                ],
                "label": "B",
                "properties": {}
            },
            {
                "species": [
                    {
                        "element": "B",
                        "occu": 1
                    }
                ],
                "abc": [
                    0.80090234,
                    0.25543604,
                    0.29545306
                ],
                "xyz": [
                    4.706019904492141,
                    2.5070683196613244,
                    2.435851817680057
                ],
                "label": "B",
                "properties": {}
            },
            {
                "species": [
                    {
                        "element": "B",
                        "occu": 1
                    }
                ],
                "abc": [
                    0.03199366,
                    0.40784577,
                    0.75555726
                ],
                "xyz": [
                    1.6867596262153586,
                    4.5309377104260005,
                    6.228447552295969
                ],
                "label": "B",
                "properties": {}
            },
            {
                "species": [
                    {
                        "element": "B",
                        "occu": 1
                    }
                ],
                "abc": [
                    0.96800634,
                    0.59215423,
                    0.24444274
                ],
                "xyz": [
                    5.520548783784641,
                    4.992867839573999,
                    2.0156487277040314
                ],
                "label": "B",
                "properties": {}
            },
            {
                "species": [
                    {
                        "element": "B",
                        "occu": 1
                    }
                ],
                "abc": [
                    0.95968357,
                    0.80494144,
                    0.97087182
                ],
                "xyz": [
                    6.911379591754585,
                    7.974666788173135,
                    8.003841323155546
                ],
                "label": "B",
                "properties": {}
            },
            {
                "species": [
                    {
                        "element": "B",
                        "occu": 1
                    }
                ],
                "abc": [
                    0.04031643,
                    0.19505856,
                    0.02912818
                ],
                "xyz": [
                    0.29592881824541495,
                    1.549138761826865,
                    0.24025495684445342
                ],
                "label": "B",
                "properties": {}
            },
            {
                "species": [
                    {
                        "element": "O",
                        "occu": 1
                    }
                ],
                "abc": [
                    0.06288539,
                    0.79532151,
                    0.56659626
                ],
                "xyz": [
                    1.5486809322937085,
                    7.149225476084099,
                    4.6710986413995
                ],
                "label": "O",
                "properties": {}
            },
            {
                "species": [
                    {
                        "element": "O",
                        "occu": 1
                    }
                ],
                "abc": [
                    0.93711461,
                    0.20467849,
                    0.43340374
                ],
                "xyz": [
                    5.6586274777062915,
                    2.374580073915901,
                    3.5729976386005005
                ],
                "label": "O",
                "properties": {}
            },
            {
                "species": [
                    {
                        "element": "O",
                        "occu": 1
                    }
                ],
                "abc": [
                    0.79271477,
                    0.45180038,
                    0.68044136
                ],
                "xyz": [
                    5.438331104441094,
                    4.728017931821403,
                    5.609493972815932
                ],
                "label": "O",
                "properties": {}
            },
            {
                "species": [
                    {
                        "element": "O",
                        "occu": 1
                    }
                ],
                "abc": [
                    0.20728523,
                    0.54819962,
                    0.31955864
                ],
                "xyz": [
                    1.7689773055589066,
                    4.795787618178597,
                    2.634602307184068
                ],
                "label": "O",
                "properties": {}
            },
            {
                "species": [
                    {
                        "element": "O",
                        "occu": 1
                    }
                ],
                "abc": [
                    0.49412211,
                    0.78414319,
                    0.63717667
                ],
                "xyz": [
                    3.8866353887606166,
                    7.194752069099271,
                    5.253010316134476
                ],
                "label": "O",
                "properties": {}
            },
            {
                "species": [
                    {
                        "element": "O",
                        "occu": 1
                    }
                ],
                "abc": [
                    0.50587789,
                    0.21585681,
                    0.36282333
                ],
                "xyz": [
                    3.3206730212393833,
                    2.32905348090073,
                    2.9910859638655243
                ],
                "label": "O",
                "properties": {}
            },
            {
                "species": [
                    {
                        "element": "O",
                        "occu": 1
                    }
                ],
                "abc": [
                    0.23660276,
                    0.32258135,
                    0.64707117
                ],
                "xyz": [
                    2.5092480743000922,
                    3.675670603586246,
                    5.334178578010677
                ],
                "label": "O",
                "properties": {}
            },
            {
                "species": [
                    {
                        "element": "O",
                        "occu": 1
                    }
                ],
                "abc": [
                    0.76339724,
                    0.67741865,
                    0.35292883
                ],
                "xyz": [
                    4.698060335699908,
                    5.8481349464137535,
                    2.9099177019893236
                ],
                "label": "O",
                "properties": {}
            },
            {
                "species": [
                    {
                        "element": "O",
                        "occu": 1
                    }
                ],
                "abc": [
                    0.13588992,
                    0.56154206,
                    0.79753235
                ],
                "xyz": [
                    2.325184801575578,
                    5.786949167574521,
                    6.574589331735337
                ],
                "label": "O",
                "properties": {}
            },
            {
                "species": [
                    {
                        "element": "O",
                        "occu": 1
                    }
                ],
                "abc": [
                    0.86411008,
                    0.43845794,
                    0.20246765
                ],
                "xyz": [
                    4.882123608424422,
                    3.7368563824254792,
                    1.6695069482646632
                ],
                "label": "O",
                "properties": {}
            },
            {
                "species": [
                    {
                        "element": "O",
                        "occu": 1
                    }
                ],
                "abc": [
                    0.69237745,
                    0.82264429,
                    0.9960571
                ],
                "xyz": [
                    5.596562745348066,
                    8.15721956024225,
                    8.211387003212558
                ],
                "label": "O",
                "properties": {}
            },
            {
                "species": [
                    {
                        "element": "O",
                        "occu": 1
                    }
                ],
                "abc": [
                    0.30762255,
                    0.17735571,
                    0.0039429
                ],
                "xyz": [
                    1.610745664651933,
                    1.36658598975775,
                    0.032709276787443
                ],
                "label": "O",
                "properties": {}
            },
            {
                "species": [
                    {
                        "element": "O",
                        "occu": 1
                    }
                ],
                "abc": [
                    0.08765019,
                    0.72463567,
                    0.09423908
                ],
                "xyz": [
                    0.7549689213254537,
                    5.729022234713511,
                    0.7773565567647556
                ],
                "label": "O",
                "properties": {}
            },
            {
                "species": [
                    {
                        "element": "O",
                        "occu": 1
                    }
                ],
                "abc": [
                    0.91234981,
                    0.27536433,
                    0.90576092
                ],
                "xyz": [
                    6.452339488674546,
                    3.7947833152864874,
                    7.466739723235245
                ],
                "label": "O",
                "properties": {}
            },
            {
                "species": [
                    {
                        "element": "O",
                        "occu": 1
                    }
                ],
                "abc": [
                    0.12619866,
                    0.86930622,
                    0.81602062
                ],
                "xyz": [
                    2.3646174922043732,
                    8.180109688483855,
                    6.72720375997525
                ],
                "label": "O",
                "properties": {}
            },
            {
                "species": [
                    {
                        "element": "O",
                        "occu": 1
                    }
                ],
                "abc": [
                    0.87380134,
                    0.13069378,
                    0.18397938
                ],
                "xyz": [
                    4.842690917795626,
                    1.3436958615161463,
                    1.5168925200247505
                ],
                "label": "O",
                "properties": {}
            }
        ]
    },
    "spacegroup": {
        "source": "spglib",
        "symbol": "P-1",
        "number": 2,
        "point_group": "-1",
        "crystal_system": "triclinic",
        "hall": "-P 1"
    },
    "dielectric": {
        "epsilon_ionic": [
            [
                5.76800314,
                -0.82736103,
                0.3696249
            ],
            [
                -0.82736103,
                5.82989282,
                -1.08876162
            ],
            [
                0.3696249,
                -1.08876162,
                8.16004553
            ]
        ],
        "epsilon_ionic_avg": 6.585980496666664,
        "epsilon_ionic_eig": [
            8.736768502955378,
            6.14015146224735,
            4.881021524797264
        ],
        "epsilon_electronic": [
            [
                3.23554181,
                -0.0569341,
                -0.00479235
            ],
            [
                -0.0569337,
                3.09882513,
                0.01818422
            ],
            [
                -0.0047916,
                0.01818438,
                3.26918286
            ]
        ],
        "epsilon_electronic_avg": 3.2011832666666677,
        "epsilon_electronic_eig": [
            3.0769719681788548,
            3.250459772386088,
            3.2761180594350594
        ]
    },
    "phonon": {
        "lowest_freq": -0.0843815552738057,
        "frequency": [
            -0.0843815552738057,
            -0.07210746859875913,
            -0.04921790275496555,
            1.5401645968583153,
            1.9194203780100294,
            2.292402345556036,
            2.578871815051803,
            2.6176586714339694,
            2.6871811322302306,
            3.199997045258875,
            3.2674765989837318,
            3.38717357150129,
            3.6391961703520654,
            3.656369818450961,
            3.998534841836941,
            4.4234875292111795,
            4.630156806002749,
            5.105626054210912,
            5.185669606752811,
            5.680790681370364,
            6.202330295508665,
            6.416653621828091,
            6.752009976331109,
            6.85332940210366,
            7.253300662525174,
            7.46816969212364,
            7.819922896864926,
            8.145646504295675,
            8.520643157772774,
            8.756519095915069,
            8.964711931918016,
            9.242605010961938,
            9.276704007708489,
            10.227068547574085,
            10.680780548922293,
            11.292755191384009,
            11.437129799717274,
            11.693973454199515,
            12.092031823996434,
            13.200700204481032,
            13.436545950176557,
            14.946372391434567,
            15.099536327002893,
            15.822384246551271,
            15.953052720098029,
            16.961428724545584,
            16.98276897114735,
            17.489563055429567,
            17.775198569647806,
            18.846667687705754,
            19.081793887953644,
            19.614214370020402,
            20.859809877531788,
            21.759106074116815,
            21.811126115252826,
            21.828426562476903,
            22.027310146717795,
            22.717206166057505,
            22.901634911843708,
            23.95304555329516,
            23.985541685272214,
            24.961838797350453,
            25.248068629046646,
            25.297412519272147,
            25.517956796590834,
            25.971480349524835,
            26.088266014342743,
            26.213826488295748,
            27.10555234519128,
            27.598959046462156,
            28.93178748409053,
            29.831181769226028,
            30.03568496419067,
            30.717341546775923,
            31.279574019302792,
            31.74371393600232,
            32.08078916254176,
            36.20692109272317,
            36.65513886516,
            40.25416533767981,
            40.28946451456159
        ]
    },
    "born_effective_charge": {
        "avg_abs_trace": 2.1360395061728394,
        "tensors": [
            [
                [
                    2.92298,
                    0.02208,
                    0.01548
                ],
                [
                    0.02238,
                    2.68114,
                    0.15998
                ],
                [
                    0.03738,
                    0.22221,
                    2.59284
                ]
            ],
            [
                [
                    2.55993,
                    -0.06519,
                    -0.04698
                ],
                [
                    0.01068,
                    3.02677,
                    -0.11991
                ],
                [
                    -0.0043,
                    -0.14374,
                    2.69492
                ]
            ],
            [
                [
                    2.55991,
                    -0.06517,
                    -0.04704
                ],
                [
                    0.01067,
                    3.02668,
                    -0.11988
                ],
                [
                    -0.00432,
                    -0.14369,
                    2.69489
                ]
            ],
            [
                [
                    3.43402,
                    -0.32647,
                    -0.01154
                ],
                [
                    -0.23155,
                    2.87442,
                    0.14045
                ],
                [
                    0.09244,
                    0.17665,
                    3.28898
                ]
            ],
            [
                [
                    3.434,
                    -0.32648,
                    -0.01154
                ],
                [
                    -0.23152,
                    2.87438,
                    0.14054
                ],
                [
                    0.09243,
                    0.17663,
                    3.28891
                ]
            ],
            [
                [
                    2.92865,
                    0.17552,
                    0.06065
                ],
                [
                    0.08736,
                    2.12503,
                    0.29455
                ],
                [
                    -0.08506,
                    0.12186,
                    2.5328
                ]
            ],
            [
                [
                    2.92864,
                    0.17554,
                    0.06067
                ],
                [
                    0.08737,
                    2.12503,
                    0.29455
                ],
                [
                    -0.08512,
                    0.12186,
                    2.5328
                ]
            ],
            [
                [
                    2.13915,
                    0.12791,
                    0.19753
                ],
                [
                    -0.30673,
                    2.42126,
                    0.0629
                ],
                [
                    -0.15644,
                    0.34039,
                    2.65253
                ]
            ],
            [
                [
                    2.13913,
                    0.12793,
                    0.19756
                ],
                [
                    -0.30677,
                    2.42137,
                    0.06297
                ],
                [
                    -0.15643,
                    0.34035,
                    2.65257
                ]
            ],
            [
                [
                    2.72696,
                    -0.38951,
                    -0.09797
                ],
                [
                    -0.5374,
                    0.94791,
                    -0.23748
                ],
                [
                    0.05939,
                    -0.39957,
                    2.80304
                ]
            ],
            [
                [
                    2.72697,
                    -0.38951,
                    -0.09803
                ],
                [
                    -0.53743,
                    0.94793,
                    -0.23755
                ],
                [
                    0.05939,
                    -0.39959,
                    2.80308
                ]
            ],
            [
                [
                    -2.07874,
                    -0.23158,
                    -0.54311
                ],
                [
                    -0.36193,
                    -1.25736,
                    -0.05093
                ],
                [
                    -0.383,
                    0.07457,
                    -1.88072
                ]
            ],
            [
                [
                    -2.07879,
                    -0.23142,
                    -0.54317
                ],
                [
                    -0.36195,
                    -1.25703,
                    -0.05108
                ],
                [
                    -0.38302,
                    0.07453,
                    -1.88076
                ]
            ],
            [
                [
                    -1.84048,
                    0.1873,
                    -0.24706
                ],
                [
                    0.39699,
                    -1.7147,
                    0.31531
                ],
                [
                    -0.33088,
                    0.20272,
                    -1.68641
                ]
            ],
            [
                [
                    -1.84035,
                    0.18749,
                    -0.24706
                ],
                [
                    0.39643,
                    -1.71495,
                    0.31559
                ],
                [
                    -0.33052,
                    0.20296,
                    -1.68654
                ]
            ],
            [
                [
                    -2.72788,
                    0.16867,
                    0.52816
                ],
                [
                    0.17701,
                    -1.46469,
                    -0.18258
                ],
                [
                    0.51789,
                    -0.17757,
                    -1.4366
                ]
            ],
            [
                [
                    -2.72791,
                    0.16863,
                    0.52816
                ],
                [
                    0.17678,
                    -1.4649,
                    -0.18266
                ],
                [
                    0.518,
                    -0.17754,
                    -1.43659
                ]
            ],
            [
                [
                    -1.53762,
                    0.39121,
                    0.02528
                ],
                [
                    0.51525,
                    -1.50814,
                    -0.50338
                ],
                [
                    0.19838,
                    -0.54964,
                    -2.22442
                ]
            ],
            [
                [
                    -1.53749,
                    0.39127,
                    0.02552
                ],
                [
                    0.51538,
                    -1.50831,
                    -0.50314
                ],
                [
                    0.19833,
                    -0.54955,
                    -2.22449
                ]
            ],
            [
                [
                    -1.53773,
                    -0.47093,
                    -0.15059
                ],
                [
                    -0.3698,
                    -2.26247,
                    0.10129
                ],
                [
                    -0.16452,
                    0.05658,
                    -1.52621
                ]
            ],
            [
                [
                    -1.53768,
                    -0.471,
                    -0.15067
                ],
                [
                    -0.36966,
                    -2.26252,
                    0.10152
                ],
                [
                    -0.16451,
                    0.05648,
                    -1.52645
                ]
            ],
            [
                [
                    -2.31566,
                    0.15576,
                    0.20877
                ],
                [
                    0.30123,
                    -1.62803,
                    0.00462
                ],
                [
                    0.0968,
                    0.05552,
                    -1.68065
                ]
            ],
            [
                [
                    -2.31562,
                    0.15577,
                    0.20881
                ],
                [
                    0.30124,
                    -1.62795,
                    0.00466
                ],
                [
                    0.09671,
                    0.05554,
                    -1.68059
                ]
            ],
            [
                [
                    -1.64041,
                    0.21594,
                    -0.46185
                ],
                [
                    0.25958,
                    -1.32315,
                    0.46078
                ],
                [
                    -0.40013,
                    0.47954,
                    -2.50623
                ]
            ],
            [
                [
                    -1.64035,
                    0.21602,
                    -0.46185
                ],
                [
                    0.25936,
                    -1.3231,
                    0.46047
                ],
                [
                    -0.39985,
                    0.47959,
                    -2.50606
                ]
            ],
            [
                [
                    -1.57187,
                    0.05007,
                    0.53103
                ],
                [
                    0.04852,
                    -1.57736,
                    -0.36569
                ],
                [
                    0.54042,
                    -0.34863,
                    -2.32729
                ]
            ],
            [
                [
                    -1.57176,
                    0.05017,
                    0.53084
                ],
                [
                    0.0485,
                    -1.57724,
                    -0.36591
                ],
                [
                    0.54055,
                    -0.34847,
                    -2.32733
                ]
            ]
        ]
    },
    "band_gap": 4.0495,
    "is_direct": false,
    "formula": "Ba3Ge2(B3O8)2"
}