{
    "mp_id": "mp-18510",
    "nelements": 3,
    "nsites": 28,
    "elements": [
        "O",
        "Si",
        "Sr"
    ],
    "structure": {
        "@module": "pymatgen.core.structure",
        "@class": "Structure",
        "charge": null,
        "lattice": {
            "matrix": [
                [
                    5.66454736,
                    0.0,
                    -1.622e-05
                ],
                [
                    0.0,
                    7.07012892,
                    0.0
                ],
                [
                    -5.08255028,
                    0.0,
                    9.6976459
                ]
            ],
            "a": 5.664547360023223,
            "b": 7.07012892,
            "c": 10.948819724085098,
            "alpha": 90.0,
            "beta": 117.65926282055531,
            "gamma": 90.0,
            "volume": 388.3812146602647
        },
        "sites": [
            {
                "species": [
                    {
                        "element": "Sr",
                        "occu": 1
                    }
                ],
                "abc": [
                    0.97219806,
                    0.49998383,
                    0.19744448
                ],
                "xyz": [
                    4.503540457061668,
                    3.5349501360153637,
                    1.9147308828970986
                ],
                "label": "Sr",
                "properties": {}
            },
            {
                "species": [
                    {
                        "element": "Sr",
                        "occu": 1
                    }
                ],
                "abc": [
                    0.02780194,
                    0.99998383,
                    0.30255552
                ],
                "xyz": [
                    -1.3802682370616675,
                    7.070014596015364,
                    2.934075847102901
                ],
                "label": "Sr",
                "properties": {}
            },
            {
                "species": [
                    {
                        "element": "Sr",
                        "occu": 1
                    }
                ],
                "abc": [
                    0.02780194,
                    0.50001617,
                    0.80255552
                ],
                "xyz": [
                    -3.921543377061667,
                    3.5351787839846365,
                    7.7828987971029004
                ],
                "label": "Sr",
                "properties": {}
            },
            {
                "species": [
                    {
                        "element": "Sr",
                        "occu": 1
                    }
                ],
                "abc": [
                    0.97219806,
                    1.617e-05,
                    0.69744448
                ],
                "xyz": [
                    1.962265317061667,
                    0.0001143239846364,
                    6.763553832897099
                ],
                "label": "Sr",
                "properties": {}
            },
            {
                "species": [
                    {
                        "element": "Sr",
                        "occu": 1
                    }
                ],
                "abc": [
                    0.68858699,
                    0.84293317,
                    0.92425122
                ],
                "xyz": [
                    -0.7970196806664953,
                    5.959646182844277,
                    8.96304988532202
                ],
                "label": "Sr",
                "properties": {}
            },
            {
                "species": [
                    {
                        "element": "Sr",
                        "occu": 1
                    }
                ],
                "abc": [
                    0.31141301,
                    0.34293317,
                    0.57574878
                ],
                "xyz": [
                    -1.1622583793335046,
                    2.4245817228442763,
                    5.583402744677978
                ],
                "label": "Sr",
                "properties": {}
            },
            {
                "species": [
                    {
                        "element": "Sr",
                        "occu": 1
                    }
                ],
                "abc": [
                    0.31141301,
                    0.15706683,
                    0.07574878
                ],
                "xyz": [
                    1.3790167606664954,
                    1.1104827371557235,
                    0.7345797946779798
                ],
                "label": "Sr",
                "properties": {}
            },
            {
                "species": [
                    {
                        "element": "Sr",
                        "occu": 1
                    }
                ],
                "abc": [
                    0.68858699,
                    0.65706683,
                    0.42425122
                ],
                "xyz": [
                    1.744255459333505,
                    4.645547197155723,
                    4.11422693532202
                ],
                "label": "Sr",
                "properties": {}
            },
            {
                "species": [
                    {
                        "element": "Si",
                        "occu": 1
                    }
                ],
                "abc": [
                    0.66008156,
                    0.2791847,
                    0.91879457
                ],
                "xyz": [
                    -0.9307563409332977,
                    1.973871821491524,
                    8.910133688179858
                ],
                "label": "Si",
                "properties": {}
            },
            {
                "species": [
                    {
                        "element": "Si",
                        "occu": 1
                    }
                ],
                "abc": [
                    0.33991844,
                    0.7791847,
                    0.58120543
                ],
                "xyz": [
                    -1.0285217190667024,
                    5.508936281491524,
                    5.63631894182014
                ],
                "label": "Si",
                "properties": {}
            },
            {
                "species": [
                    {
                        "element": "Si",
                        "occu": 1
                    }
                ],
                "abc": [
                    0.33991844,
                    0.7208153,
                    0.08120543
                ],
                "xyz": [
                    1.512753420933298,
                    5.0962570985084765,
                    0.7874959918201402
                ],
                "label": "Si",
                "properties": {}
            },
            {
                "species": [
                    {
                        "element": "Si",
                        "occu": 1
                    }
                ],
                "abc": [
                    0.66008156,
                    0.2208153,
                    0.41879457
                ],
                "xyz": [
                    1.610518799066702,
                    1.561192638508476,
                    4.061310738179859
                ],
                "label": "Si",
                "properties": {}
            },
            {
                "species": [
                    {
                        "element": "O",
                        "occu": 1
                    }
                ],
                "abc": [
                    0.3432778,
                    0.23302193,
                    0.81994188
                ],
                "xyz": [
                    -2.2228824760411188,
                    1.6474950862872155,
                    7.951500442854376
                ],
                "label": "O",
                "properties": {}
            },
            {
                "species": [
                    {
                        "element": "O",
                        "occu": 1
                    }
                ],
                "abc": [
                    0.6567222,
                    0.73302193,
                    0.68005812
                ],
                "xyz": [
                    0.2636044160411184,
                    5.182559546287216,
                    6.594952187145624
                ],
                "label": "O",
                "properties": {}
            },
            {
                "species": [
                    {
                        "element": "O",
                        "occu": 1
                    }
                ],
                "abc": [
                    0.6567222,
                    0.76697807,
                    0.18005812
                ],
                "xyz": [
                    2.8048795560411186,
                    5.422633833712784,
                    1.7461292371456238
                ],
                "label": "O",
                "properties": {}
            },
            {
                "species": [
                    {
                        "element": "O",
                        "occu": 1
                    }
                ],
                "abc": [
                    0.3432778,
                    0.26697807,
                    0.31994188
                ],
                "xyz": [
                    0.31839266395888144,
                    1.8875693737127845,
                    3.102677492854376
                ],
                "label": "O",
                "properties": {}
            },
            {
                "species": [
                    {
                        "element": "O",
                        "occu": 1
                    }
                ],
                "abc": [
                    0.8480983,
                    0.17538704,
                    0.85973231
                ],
                "xyz": [
                    0.4344602933699404,
                    1.2400089836971968,
                    8.337365755014604
                ],
                "label": "O",
                "properties": {}
            },
            {
                "species": [
                    {
                        "element": "O",
                        "occu": 1
                    }
                ],
                "abc": [
                    0.1519017,
                    0.67538704,
                    0.64026769
                ],
                "xyz": [
                    -2.3937383533699412,
                    4.775073443697197,
                    6.209086874985396
                ],
                "label": "O",
                "properties": {}
            },
            {
                "species": [
                    {
                        "element": "O",
                        "occu": 1
                    }
                ],
                "abc": [
                    0.1519017,
                    0.82461296,
                    0.14026769
                ],
                "xyz": [
                    0.14753678663005876,
                    5.830119936302803,
                    1.360263924985397
                ],
                "label": "O",
                "properties": {}
            },
            {
                "species": [
                    {
                        "element": "O",
                        "occu": 1
                    }
                ],
                "abc": [
                    0.8480983,
                    0.32461296,
                    0.35973231
                ],
                "xyz": [
                    2.975735433369941,
                    2.2950554763028035,
                    3.4885428050146032
                ],
                "label": "O",
                "properties": {}
            },
            {
                "species": [
                    {
                        "element": "O",
                        "occu": 1
                    }
                ],
                "abc": [
                    0.75335936,
                    0.18044701,
                    0.07195436
                ],
                "xyz": [
                    3.9017281212540693,
                    1.2757836239285292,
                    0.6977756847523047
                ],
                "label": "O",
                "properties": {}
            },
            {
                "species": [
                    {
                        "element": "O",
                        "occu": 1
                    }
                ],
                "abc": [
                    0.24664064,
                    0.68044701,
                    0.42804564
                ],
                "xyz": [
                    -0.778455901254069,
                    4.810848083928529,
                    4.151031045247695
                ],
                "label": "O",
                "properties": {}
            },
            {
                "species": [
                    {
                        "element": "O",
                        "occu": 1
                    }
                ],
                "abc": [
                    0.24664064,
                    0.81955299,
                    0.92804564
                ],
                "xyz": [
                    -3.3197310412540695,
                    5.794345296071471,
                    8.999853995247694
                ],
                "label": "O",
                "properties": {}
            },
            {
                "species": [
                    {
                        "element": "O",
                        "occu": 1
                    }
                ],
                "abc": [
                    0.75335936,
                    0.31955299,
                    0.57195436
                ],
                "xyz": [
                    1.360452981254069,
                    2.2592808360714707,
                    5.546598634752304
                ],
                "label": "O",
                "properties": {}
            },
            {
                "species": [
                    {
                        "element": "O",
                        "occu": 1
                    }
                ],
                "abc": [
                    0.71232257,
                    0.99378798,
                    0.43112214
                ],
                "xyz": [
                    1.843784979990716,
                    7.026209137746382,
                    4.18085829949814
                ],
                "label": "O",
                "properties": {}
            },
            {
                "species": [
                    {
                        "element": "O",
                        "occu": 1
                    }
                ],
                "abc": [
                    0.28767743,
                    0.49378798,
                    0.06887786
                ],
                "xyz": [
                    1.2794872400092843,
                    3.491144677746382,
                    0.6679484305018594
                ],
                "label": "O",
                "properties": {}
            },
            {
                "species": [
                    {
                        "element": "O",
                        "occu": 1
                    }
                ],
                "abc": [
                    0.28767743,
                    0.00621202,
                    0.56887786
                ],
                "xyz": [
                    -1.261787899990716,
                    0.0439197822536184,
                    5.516771380501859
                ],
                "label": "O",
                "properties": {}
            },
            {
                "species": [
                    {
                        "element": "O",
                        "occu": 1
                    }
                ],
                "abc": [
                    0.71232257,
                    0.50621202,
                    0.93112214
                ],
                "xyz": [
                    -0.6974901600092842,
                    3.578984242253618,
                    9.029681249498141
                ],
                "label": "O",
                "properties": {}
            }
        ]
    },
    "spacegroup": {
        "source": "spglib",
        "symbol": "P2_1/c",
        "number": 14,
        "point_group": "2/m",
        "crystal_system": "monoclinic",
        "hall": "-P 2ybc"
    },
    "dielectric": {
        "epsilon_ionic": [
            [
                9.90343489,
                -0.0,
                -1.23512149
            ],
            [
                -0.0,
                7.07141042,
                0.0
            ],
            [
                -1.23512149,
                0.0,
                11.33296789
            ]
        ],
        "epsilon_ionic_avg": 9.435937733333333,
        "epsilon_ionic_eig": [
            9.191170821097543,
            12.045231958902457,
            7.07141042
        ],
        "epsilon_electronic": [
            [
                3.29876705,
                0.0,
                0.0101709
            ],
            [
                0.0,
                3.37958074,
                0.0
            ],
            [
                0.01017404,
                0.0,
                3.26826568
            ]
        ],
        "epsilon_electronic_avg": 3.315537823333333,
        "epsilon_electronic_eig": [
            3.30184837352076,
            3.2651843564792395,
            3.37958074
        ]
    },
    "phonon": {
        "lowest_freq": -0.05413790542663046,
        "frequency": [
            -0.05413790542663046,
            -0.02695302424701193,
            -0.011856050603418737,
            2.024685044824367,
            2.2045375799923317,
            2.4275119110375627,
            2.503738263676972,
            2.8803995909197537,
            3.0676563237609233,
            3.0700414727137653,
            3.1787713280730165,
            3.3903843613753715,
            3.5073932336063414,
            3.62201254806903,
            3.642164784911391,
            3.8742624198312283,
            3.896305078956524,
            4.021813810854819,
            4.099853726542994,
            4.173559558420173,
            4.276200589099648,
            4.304312633511538,
            4.433268084168588,
            4.745751228226709,
            4.767804706973272,
            4.952917613393014,
            4.998113249187405,
            5.037949830585016,
            5.22912906107619,
            5.561572026146441,
            5.578871422397999,
            5.587055203413269,
            5.775547104897676,
            6.042744713503205,
            6.087354725950651,
            6.089657046421368,
            6.1299768759734645,
            6.228528003670235,
            6.315764096525372,
            6.5270019149205165,
            6.7192666735352775,
            6.865578528871581,
            6.884668147358421,
            6.9992741017973215,
            7.266570714126379,
            7.442723261409144,
            7.586083402474172,
            7.602520106434489,
            10.206775802485394,
            10.367384118700928,
            10.508864017720391,
            10.694263964612874,
            10.916097077906354,
            11.323820697995119,
            11.39952079895192,
            11.763651204538572,
            14.026404014420518,
            14.039146142200211,
            14.326768679338835,
            14.32898427398903,
            14.473676152424217,
            14.475016327676999,
            14.721123735475155,
            14.730187854658174,
            14.901896430628353,
            14.984713388107854,
            15.297261369395388,
            15.605770806747199,
            24.372952918886288,
            24.387736060935804,
            24.426252547308454,
            24.57239195763075,
            25.16973662526778,
            25.466605244217483,
            25.590687872027754,
            26.097495151797634,
            26.44119491778542,
            26.484053564061426,
            26.62186647993726,
            27.566823044576417,
            27.850854755414357,
            27.896902951252574,
            28.25583044551305,
            28.389107813618022
        ]
    },
    "born_effective_charge": {
        "avg_abs_trace": 2.2453814285714286,
        "tensors": [
            [
                [
                    2.44333,
                    -0.02122,
                    -0.05991
                ],
                [
                    0.02156,
                    2.47052,
                    -0.04802
                ],
                [
                    -0.01958,
                    -0.0888,
                    2.63723
                ]
            ],
            [
                [
                    2.44332,
                    0.02123,
                    -0.0599
                ],
                [
                    -0.02156,
                    2.47052,
                    0.04802
                ],
                [
                    -0.01949,
                    0.0888,
                    2.63723
                ]
            ],
            [
                [
                    2.44332,
                    -0.02123,
                    -0.0599
                ],
                [
                    0.02158,
                    2.4705,
                    -0.04797
                ],
                [
                    -0.01949,
                    -0.0888,
                    2.63723
                ]
            ],
            [
                [
                    2.44333,
                    0.02122,
                    -0.05991
                ],
                [
                    -0.02158,
                    2.4705,
                    0.04797
                ],
                [
                    -0.01958,
                    0.0888,
                    2.63723
                ]
            ],
            [
                [
                    2.47839,
                    0.04489,
                    0.02008
                ],
                [
                    0.02221,
                    2.78014,
                    0.01307
                ],
                [
                    0.00988,
                    0.04355,
                    2.34675
                ]
            ],
            [
                [
                    2.47835,
                    -0.04485,
                    0.02008
                ],
                [
                    -0.02221,
                    2.78014,
                    -0.01307
                ],
                [
                    0.00987,
                    -0.04353,
                    2.34666
                ]
            ],
            [
                [
                    2.47835,
                    0.04485,
                    0.02008
                ],
                [
                    0.0222,
                    2.78037,
                    0.01299
                ],
                [
                    0.00987,
                    0.04353,
                    2.34666
                ]
            ],
            [
                [
                    2.47839,
                    -0.04489,
                    0.02008
                ],
                [
                    -0.0222,
                    2.78037,
                    -0.01299
                ],
                [
                    0.00988,
                    -0.04355,
                    2.34675
                ]
            ],
            [
                [
                    2.9081,
                    -0.00403,
                    0.04607
                ],
                [
                    0.00176,
                    2.90018,
                    0.00039
                ],
                [
                    0.09912,
                    0.02381,
                    2.61178
                ]
            ],
            [
                [
                    2.90811,
                    0.00403,
                    0.04607
                ],
                [
                    -0.00176,
                    2.90018,
                    -0.00039
                ],
                [
                    0.09907,
                    -0.02381,
                    2.61176
                ]
            ],
            [
                [
                    2.90811,
                    -0.00403,
                    0.04607
                ],
                [
                    0.00173,
                    2.90031,
                    0.00035
                ],
                [
                    0.09907,
                    0.02381,
                    2.61176
                ]
            ],
            [
                [
                    2.9081,
                    0.00403,
                    0.04607
                ],
                [
                    -0.00173,
                    2.90031,
                    -0.00035
                ],
                [
                    0.09912,
                    -0.02381,
                    2.61178
                ]
            ],
            [
                [
                    -2.21476,
                    -0.13615,
                    -0.39595
                ],
                [
                    -0.10027,
                    -1.69323,
                    -0.11439
                ],
                [
                    -0.44678,
                    -0.07527,
                    -1.98072
                ]
            ],
            [
                [
                    -2.21475,
                    0.13615,
                    -0.39598
                ],
                [
                    0.10027,
                    -1.69323,
                    0.11439
                ],
                [
                    -0.44671,
                    0.07527,
                    -1.9807
                ]
            ],
            [
                [
                    -2.21475,
                    -0.13615,
                    -0.39598
                ],
                [
                    -0.10043,
                    -1.69317,
                    -0.11455
                ],
                [
                    -0.44671,
                    -0.07527,
                    -1.9807
                ]
            ],
            [
                [
                    -2.21476,
                    0.13615,
                    -0.39595
                ],
                [
                    0.10043,
                    -1.69317,
                    0.11455
                ],
                [
                    -0.44678,
                    0.07527,
                    -1.98072
                ]
            ],
            [
                [
                    -2.25921,
                    0.26856,
                    0.24971
                ],
                [
                    0.24717,
                    -1.92133,
                    -0.12686
                ],
                [
                    0.26493,
                    -0.13011,
                    -1.72113
                ]
            ],
            [
                [
                    -2.2592,
                    -0.26857,
                    0.24968
                ],
                [
                    -0.24717,
                    -1.92133,
                    0.12686
                ],
                [
                    0.26496,
                    0.13014,
                    -1.72108
                ]
            ],
            [
                [
                    -2.2592,
                    0.26857,
                    0.24968
                ],
                [
                    0.24734,
                    -1.92131,
                    -0.12687
                ],
                [
                    0.26496,
                    -0.13014,
                    -1.72108
                ]
            ],
            [
                [
                    -2.25921,
                    -0.26856,
                    0.24971
                ],
                [
                    -0.24734,
                    -1.92131,
                    0.12687
                ],
                [
                    0.26493,
                    0.13011,
                    -1.72113
                ]
            ],
            [
                [
                    -1.80407,
                    -0.10363,
                    0.0991
                ],
                [
                    -0.10196,
                    -1.86174,
                    0.27451
                ],
                [
                    0.04568,
                    0.25524,
                    -2.27496
                ]
            ],
            [
                [
                    -1.80408,
                    0.10363,
                    0.09908
                ],
                [
                    0.10196,
                    -1.86174,
                    -0.27451
                ],
                [
                    0.04567,
                    -0.25522,
                    -2.27492
                ]
            ],
            [
                [
                    -1.80408,
                    -0.10363,
                    0.09908
                ],
                [
                    -0.10214,
                    -1.86175,
                    0.27472
                ],
                [
                    0.04567,
                    0.25522,
                    -2.27492
                ]
            ],
            [
                [
                    -1.80407,
                    0.10363,
                    0.0991
                ],
                [
                    0.10214,
                    -1.86175,
                    -0.27472
                ],
                [
                    0.04568,
                    -0.25524,
                    -2.27496
                ]
            ],
            [
                [
                    -1.55177,
                    0.11953,
                    0.04094
                ],
                [
                    0.1022,
                    -2.67489,
                    0.08801
                ],
                [
                    0.0467,
                    0.08407,
                    -1.61895
                ]
            ],
            [
                [
                    -1.55175,
                    -0.11952,
                    0.04093
                ],
                [
                    -0.1022,
                    -2.67489,
                    -0.08801
                ],
                [
                    0.04666,
                    -0.08406,
                    -1.61893
                ]
            ],
            [
                [
                    -1.55175,
                    0.11952,
                    0.04093
                ],
                [
                    0.10225,
                    -2.67459,
                    0.08807
                ],
                [
                    0.04666,
                    0.08406,
                    -1.61893
                ]
            ],
            [
                [
                    -1.55177,
                    -0.11953,
                    0.04094
                ],
                [
                    -0.10225,
                    -2.67459,
                    -0.08807
                ],
                [
                    0.0467,
                    -0.08407,
                    -1.61895
                ]
            ]
        ]
    },
    "band_gap": 4.584200000000001,
    "is_direct": false,
    "formula": "Sr2SiO4"
}