{
    "mp_id": "mp-1222349",
    "nelements": 4,
    "nsites": 14,
    "elements": [
        "Ge",
        "Li",
        "O",
        "Rh"
    ],
    "structure": {
        "@module": "pymatgen.core.structure",
        "@class": "Structure",
        "charge": null,
        "lattice": {
            "matrix": [
                [
                    -2.89976513,
                    3.00879576,
                    4.17126306
                ],
                [
                    2.89976513,
                    -3.00879576,
                    4.17126306
                ],
                [
                    2.89976513,
                    3.00879576,
                    -4.17126306
                ]
            ],
            "a": 5.904314121917841,
            "b": 5.904314121917841,
            "c": 5.904314121917841,
            "alpha": 121.17069984182719,
            "beta": 118.72658431111705,
            "gamma": 90.10198945359184,
            "volume": 145.5737609381191
        },
        "sites": [
            {
                "species": [
                    {
                        "element": "Li",
                        "occu": 1
                    }
                ],
                "abc": [
                    0.12642541,
                    0.87642541,
                    0.25
                ],
                "xyz": [
                    2.89976513,
                    -1.50439788,
                    3.140338815156709
                ],
                "label": "Li",
                "properties": {}
            },
            {
                "species": [
                    {
                        "element": "Li",
                        "occu": 1
                    }
                ],
                "abc": [
                    0.87357459,
                    0.12357459,
                    0.75
                ],
                "xyz": [
                    -4.440892098500626e-16,
                    4.51319364,
                    1.0309242448432911
                ],
                "label": "Li",
                "properties": {}
            },
            {
                "species": [
                    {
                        "element": "Ge",
                        "occu": 1
                    }
                ],
                "abc": [
                    0.5,
                    0.5,
                    0.5
                ],
                "xyz": [
                    1.449882565,
                    1.50439788,
                    2.08563153
                ],
                "label": "Ge",
                "properties": {}
            },
            {
                "species": [
                    {
                        "element": "Ge",
                        "occu": 1
                    }
                ],
                "abc": [
                    0.5,
                    0.0,
                    0.0
                ],
                "xyz": [
                    -1.449882565,
                    1.50439788,
                    2.08563153
                ],
                "label": "Ge",
                "properties": {}
            },
            {
                "species": [
                    {
                        "element": "Rh",
                        "occu": 1
                    }
                ],
                "abc": [
                    0.5,
                    0.5,
                    0.0
                ],
                "xyz": [
                    0.0,
                    0.0,
                    4.17126306
                ],
                "label": "Rh",
                "properties": {}
            },
            {
                "species": [
                    {
                        "element": "Rh",
                        "occu": 1
                    }
                ],
                "abc": [
                    0.0,
                    0.5,
                    0.5
                ],
                "xyz": [
                    2.89976513,
                    0.0,
                    0.0
                ],
                "label": "Rh",
                "properties": {}
            },
            {
                "species": [
                    {
                        "element": "O",
                        "occu": 1
                    }
                ],
                "abc": [
                    0.72578373,
                    0.25721051,
                    0.46857322
                ],
                "xyz": [
                    0.0,
                    2.819682235171094,
                    2.145785398013521
                ],
                "label": "O",
                "properties": {}
            },
            {
                "species": [
                    {
                        "element": "O",
                        "occu": 1
                    }
                ],
                "abc": [
                    0.28863729,
                    0.25721051,
                    0.03142678
                ],
                "xyz": [
                    -4.163336342344337e-17,
                    0.1891135248289056,
                    2.1457853980135213
                ],
                "label": "O",
                "properties": {}
            },
            {
                "species": [
                    {
                        "element": "O",
                        "occu": 1
                    }
                ],
                "abc": [
                    0.72785235,
                    0.24590324,
                    0.0180509
                ],
                "xyz": [
                    -1.3451958532274173,
                    1.5043979100879576,
                    3.9864956696657514
                ],
                "label": "O",
                "properties": {}
            },
            {
                "species": [
                    {
                        "element": "O",
                        "occu": 1
                    }
                ],
                "abc": [
                    0.72785235,
                    0.70980045,
                    0.4819491
                ],
                "xyz": [
                    1.345192924464636,
                    1.50440088879576,
                    3.9864915401153223
                ],
                "label": "O",
                "properties": {}
            },
            {
                "species": [
                    {
                        "element": "O",
                        "occu": 1
                    }
                ],
                "abc": [
                    0.27421627,
                    0.74278949,
                    0.53142678
                ],
                "xyz": [
                    2.8997651300000005,
                    0.1891135248289051,
                    2.0254776619864794
                ],
                "label": "O",
                "properties": {}
            },
            {
                "species": [
                    {
                        "element": "O",
                        "occu": 1
                    }
                ],
                "abc": [
                    0.71136271,
                    0.74278949,
                    0.96857322
                ],
                "xyz": [
                    2.8997651300000005,
                    2.819682235171094,
                    2.0254776619864794
                ],
                "label": "O",
                "properties": {}
            },
            {
                "species": [
                    {
                        "element": "O",
                        "occu": 1
                    }
                ],
                "abc": [
                    0.27214765,
                    0.75409676,
                    0.9819491
                ],
                "xyz": [
                    4.2449609832274176,
                    1.5043978499120423,
                    0.18476739033424838
                ],
                "label": "O",
                "properties": {}
            },
            {
                "species": [
                    {
                        "element": "O",
                        "occu": 1
                    }
                ],
                "abc": [
                    0.27214765,
                    0.29019955,
                    0.5180509
                ],
                "xyz": [
                    1.554572205535364,
                    1.50439487120424,
                    0.184771519884678
                ],
                "label": "O",
                "properties": {}
            }
        ]
    },
    "spacegroup": {
        "source": "spglib",
        "symbol": "Imma",
        "number": 74,
        "point_group": "mmm",
        "crystal_system": "orthorhombic",
        "hall": "-I 2b 2"
    },
    "dielectric": {
        "epsilon_ionic": [
            [
                5.46955478,
                0.0,
                -0.0
            ],
            [
                0.0,
                4.22856252,
                1e-08
            ],
            [
                -0.0,
                1e-08,
                4.17278179
            ]
        ],
        "epsilon_ionic_avg": 4.62363303,
        "epsilon_ionic_eig": [
            4.172781789999998,
            4.228562520000001,
            5.46955478
        ],
        "epsilon_electronic": [
            [
                4.21917418,
                0.0,
                0.0
            ],
            [
                0.0,
                5.12017641,
                -0.0
            ],
            [
                0.0,
                -0.0,
                4.62070326
            ]
        ],
        "epsilon_electronic_avg": 4.6533512833333335,
        "epsilon_electronic_eig": [
            4.21917418,
            5.12017641,
            4.62070326
        ]
    },
    "phonon": {
        "lowest_freq": -0.030531147626921464,
        "frequency": [
            -0.030531147626921464,
            -0.026451245403689035,
            -0.017734596115590206,
            4.761201598924525,
            4.882909936255364,
            5.258708041734998,
            7.274692077339304,
            7.777993273410813,
            7.934707633388435,
            8.237685937968628,
            8.447309156824899,
            10.621995187780513,
            10.975460003019974,
            11.063956296546852,
            11.087646818946498,
            11.462659538674096,
            11.62205745868805,
            11.740289939451229,
            12.314591732067292,
            13.471877988448723,
            13.637707070540882,
            13.659283803281836,
            13.707448265078074,
            14.610941189425988,
            14.793424049430028,
            14.942236080284559,
            15.226593380466424,
            15.563755496103857,
            15.64795057602143,
            15.655242326082044,
            15.937620813960539,
            16.062497439763984,
            16.362552353047956,
            16.8601532379729,
            17.130877672679258,
            17.19779385722372,
            17.766720804818778,
            17.793634035435794,
            18.255696354183225,
            18.70966171324093,
            19.027798645661093,
            19.469345191157338
        ]
    },
    "born_effective_charge": {
        "avg_abs_trace": 1.9592369047619045,
        "tensors": [
            [
                [
                    1.25008,
                    0.0,
                    0.0
                ],
                [
                    0.0,
                    1.10375,
                    -2e-05
                ],
                [
                    -0.0,
                    0.0,
                    1.1692
                ]
            ],
            [
                [
                    1.25008,
                    0.0,
                    -0.0
                ],
                [
                    0.0,
                    1.10375,
                    2e-05
                ],
                [
                    -0.0,
                    0.0,
                    1.16919
                ]
            ],
            [
                [
                    4.42368,
                    0.0,
                    -1.59017
                ],
                [
                    0.0,
                    2.94915,
                    -0.0
                ],
                [
                    -1.77472,
                    0.0,
                    3.70633
                ]
            ],
            [
                [
                    4.42368,
                    0.0,
                    1.59017
                ],
                [
                    0.0,
                    2.94915,
                    -0.0
                ],
                [
                    1.77472,
                    0.0,
                    3.70633
                ]
            ],
            [
                [
                    1.20729,
                    0.0,
                    -0.0
                ],
                [
                    0.0,
                    3.05198,
                    -1.32042
                ],
                [
                    -0.0,
                    -0.99552,
                    1.71053
                ]
            ],
            [
                [
                    1.20729,
                    0.0,
                    -0.0
                ],
                [
                    0.0,
                    3.05198,
                    1.32042
                ],
                [
                    -0.0,
                    0.99552,
                    1.71053
                ]
            ],
            [
                [
                    -1.81167,
                    -3e-05,
                    -0.0001
                ],
                [
                    0.0,
                    -1.52188,
                    -0.42523
                ],
                [
                    -0.0,
                    -0.11269,
                    -1.98935
                ]
            ],
            [
                [
                    -1.81167,
                    3e-05,
                    -0.0001
                ],
                [
                    0.0,
                    -1.52182,
                    0.42497
                ],
                [
                    -0.0,
                    0.11269,
                    -1.98935
                ]
            ],
            [
                [
                    -1.62895,
                    -0.0,
                    -0.27253
                ],
                [
                    0.00015,
                    -2.03059,
                    0.00011
                ],
                [
                    -0.49684,
                    0.0,
                    -1.30372
                ]
            ],
            [
                [
                    -1.62876,
                    0.0,
                    0.27278
                ],
                [
                    -0.00015,
                    -2.03059,
                    0.00011
                ],
                [
                    0.49684,
                    -0.0,
                    -1.30372
                ]
            ],
            [
                [
                    -1.81167,
                    3e-05,
                    0.0001
                ],
                [
                    0.0,
                    -1.52182,
                    -0.42497
                ],
                [
                    0.0,
                    -0.1128,
                    -1.98923
                ]
            ],
            [
                [
                    -1.81167,
                    -3e-05,
                    0.0001
                ],
                [
                    0.0,
                    -1.52188,
                    0.42523
                ],
                [
                    0.0,
                    0.1128,
                    -1.98923
                ]
            ],
            [
                [
                    -1.62876,
                    -0.0,
                    -0.27278
                ],
                [
                    -0.00015,
                    -2.03059,
                    -0.00011
                ],
                [
                    -0.49711,
                    -0.0,
                    -1.30376
                ]
            ],
            [
                [
                    -1.62895,
                    -0.0,
                    0.27253
                ],
                [
                    0.00015,
                    -2.03059,
                    -0.00011
                ],
                [
                    0.49711,
                    -0.0,
                    -1.30376
                ]
            ]
        ]
    },
    "band_gap": 2.5212000000000003,
    "is_direct": false,
    "formula": "LiGeRhO4"
}