{
    "mp_id": "mp-16864",
    "nelements": 3,
    "nsites": 24,
    "elements": [
        "O",
        "Rb",
        "V"
    ],
    "structure": {
        "@module": "pymatgen.core.structure",
        "@class": "Structure",
        "charge": null,
        "lattice": {
            "matrix": [
                [
                    4.98783219,
                    0.0,
                    0.00726948
                ],
                [
                    0.0,
                    8.4477886,
                    0.0
                ],
                [
                    -0.97003434,
                    0.0,
                    7.80659385
                ]
            ],
            "a": 4.987837487422747,
            "b": 8.4477886,
            "c": 7.866630419667436,
            "alpha": 90.0,
            "beta": 96.99966665966333,
            "gamma": 90.0,
            "volume": 328.999395197994
        },
        "sites": [
            {
                "species": [
                    {
                        "element": "Rb",
                        "occu": 1
                    }
                ],
                "abc": [
                    0.93916738,
                    0.75,
                    0.07187704
                ],
                "xyz": [
                    4.6146860927044075,
                    6.33584145,
                    0.5679421169057665
                ],
                "label": "Rb",
                "properties": {}
            },
            {
                "species": [
                    {
                        "element": "Rb",
                        "occu": 1
                    }
                ],
                "abc": [
                    0.06083262,
                    0.25,
                    0.92812296
                ],
                "xyz": [
                    -0.5968882427044087,
                    2.11194715,
                    7.245921213094234
                ],
                "label": "Rb",
                "properties": {}
            },
            {
                "species": [
                    {
                        "element": "V",
                        "occu": 1
                    }
                ],
                "abc": [
                    0.56016486,
                    0.44510215,
                    0.32105128
                ],
                "xyz": [
                    2.482577553913888,
                    3.76012886860549,
                    2.510389055229101
                ],
                "label": "V",
                "properties": {}
            },
            {
                "species": [
                    {
                        "element": "V",
                        "occu": 1
                    }
                ],
                "abc": [
                    0.43983514,
                    0.94510215,
                    0.67894872
                ],
                "xyz": [
                    1.5352202960861117,
                    7.984023168605491,
                    5.303474274770898
                ],
                "label": "V",
                "properties": {}
            },
            {
                "species": [
                    {
                        "element": "V",
                        "occu": 1
                    }
                ],
                "abc": [
                    0.43983514,
                    0.55489785,
                    0.67894872
                ],
                "xyz": [
                    1.5352202960861117,
                    4.68765973139451,
                    5.303474274770898
                ],
                "label": "V",
                "properties": {}
            },
            {
                "species": [
                    {
                        "element": "V",
                        "occu": 1
                    }
                ],
                "abc": [
                    0.56016486,
                    0.05489785,
                    0.32105128
                ],
                "xyz": [
                    2.482577553913888,
                    0.46376543139451004,
                    2.510389055229101
                ],
                "label": "V",
                "properties": {}
            },
            {
                "species": [
                    {
                        "element": "V",
                        "occu": 1
                    }
                ],
                "abc": [
                    0.93070681,
                    0.75,
                    0.5859782
                ],
                "xyz": [
                    4.073790409878826,
                    6.33584145,
                    4.581259566895229
                ],
                "label": "V",
                "properties": {}
            },
            {
                "species": [
                    {
                        "element": "V",
                        "occu": 1
                    }
                ],
                "abc": [
                    0.06929319,
                    0.25,
                    0.4140218
                ],
                "xyz": [
                    -0.0559925598788259,
                    2.11194715,
                    3.232603763104771
                ],
                "label": "V",
                "properties": {}
            },
            {
                "species": [
                    {
                        "element": "O",
                        "occu": 1
                    }
                ],
                "abc": [
                    0.88647102,
                    0.40134128,
                    0.26422244
                ],
                "xyz": [
                    4.165263848859544,
                    3.3904462898934087,
                    2.0691214584864634
                ],
                "label": "O",
                "properties": {}
            },
            {
                "species": [
                    {
                        "element": "O",
                        "occu": 1
                    }
                ],
                "abc": [
                    0.11352898,
                    0.90134128,
                    0.73577756
                ],
                "xyz": [
                    -0.14746599885954426,
                    7.614340589893409,
                    5.744741871513536
                ],
                "label": "O",
                "properties": {}
            },
            {
                "species": [
                    {
                        "element": "O",
                        "occu": 1
                    }
                ],
                "abc": [
                    0.11352898,
                    0.59865872,
                    0.73577756
                ],
                "xyz": [
                    -0.14746599885954426,
                    5.057342310106592,
                    5.744741871513536
                ],
                "label": "O",
                "properties": {}
            },
            {
                "species": [
                    {
                        "element": "O",
                        "occu": 1
                    }
                ],
                "abc": [
                    0.88647102,
                    0.09865872,
                    0.26422244
                ],
                "xyz": [
                    4.165263848859544,
                    0.8334480101065921,
                    2.0691214584864634
                ],
                "label": "O",
                "properties": {}
            },
            {
                "species": [
                    {
                        "element": "O",
                        "occu": 1
                    }
                ],
                "abc": [
                    0.57340121,
                    0.43578281,
                    0.82646868
                ],
                "xyz": [
                    2.058326012488479,
                    3.6814010543939664,
                    6.456073643133688
                ],
                "label": "O",
                "properties": {}
            },
            {
                "species": [
                    {
                        "element": "O",
                        "occu": 1
                    }
                ],
                "abc": [
                    0.42659879,
                    0.93578281,
                    0.17353132
                ],
                "xyz": [
                    1.9594718375115212,
                    7.905295354393966,
                    1.357789686866311
                ],
                "label": "O",
                "properties": {}
            },
            {
                "species": [
                    {
                        "element": "O",
                        "occu": 1
                    }
                ],
                "abc": [
                    0.42659879,
                    0.56421719,
                    0.17353132
                ],
                "xyz": [
                    1.9594718375115212,
                    4.766387545606035,
                    1.357789686866311
                ],
                "label": "O",
                "properties": {}
            },
            {
                "species": [
                    {
                        "element": "O",
                        "occu": 1
                    }
                ],
                "abc": [
                    0.57340121,
                    0.06421719,
                    0.82646868
                ],
                "xyz": [
                    2.058326012488479,
                    0.542493245606034,
                    6.456073643133688
                ],
                "label": "O",
                "properties": {}
            },
            {
                "species": [
                    {
                        "element": "O",
                        "occu": 1
                    }
                ],
                "abc": [
                    0.86577285,
                    0.25,
                    0.56052043
                ],
                "xyz": [
                    3.7746056250864752,
                    2.11194715,
                    4.382049060054973
                ],
                "label": "O",
                "properties": {}
            },
            {
                "species": [
                    {
                        "element": "O",
                        "occu": 1
                    }
                ],
                "abc": [
                    0.13422715,
                    0.75,
                    0.43947957
                ],
                "xyz": [
                    0.2431922249135246,
                    6.33584145,
                    3.431814269945026
                ],
                "label": "O",
                "properties": {}
            },
            {
                "species": [
                    {
                        "element": "O",
                        "occu": 1
                    }
                ],
                "abc": [
                    0.41055399,
                    0.25,
                    0.2465255
                ],
                "xyz": [
                    1.8086362063692678,
                    2.11194715,
                    1.9275089661874003
                ],
                "label": "O",
                "properties": {}
            },
            {
                "species": [
                    {
                        "element": "O",
                        "occu": 1
                    }
                ],
                "abc": [
                    0.58944601,
                    0.75,
                    0.7534745
                ],
                "xyz": [
                    2.2091616436307318,
                    6.33584145,
                    5.8863543638125995
                ],
                "label": "O",
                "properties": {}
            },
            {
                "species": [
                    {
                        "element": "O",
                        "occu": 1
                    }
                ],
                "abc": [
                    0.31320846,
                    0.08740981,
                    0.49508485
                ],
                "xyz": [
                    1.0819819332545784,
                    0.7384195964461661,
                    3.867203207873973
                ],
                "label": "O",
                "properties": {}
            },
            {
                "species": [
                    {
                        "element": "O",
                        "occu": 1
                    }
                ],
                "abc": [
                    0.68679154,
                    0.58740981,
                    0.50491515
                ],
                "xyz": [
                    2.935815916745421,
                    4.962313896446167,
                    3.9466601221260262
                ],
                "label": "O",
                "properties": {}
            },
            {
                "species": [
                    {
                        "element": "O",
                        "occu": 1
                    }
                ],
                "abc": [
                    0.68679154,
                    0.91259019,
                    0.50491515
                ],
                "xyz": [
                    2.935815916745421,
                    7.709369003553834,
                    3.9466601221260262
                ],
                "label": "O",
                "properties": {}
            },
            {
                "species": [
                    {
                        "element": "O",
                        "occu": 1
                    }
                ],
                "abc": [
                    0.31320846,
                    0.41259019,
                    0.49508485
                ],
                "xyz": [
                    1.0819819332545784,
                    3.4854747035538347,
                    3.867203207873973
                ],
                "label": "O",
                "properties": {}
            }
        ]
    },
    "spacegroup": {
        "source": "spglib",
        "symbol": "P2_1/m",
        "number": 11,
        "point_group": "2/m",
        "crystal_system": "monoclinic",
        "hall": "-P 2yb"
    },
    "dielectric": {
        "epsilon_ionic": [
            [
                14.25135556,
                -1.2e-07,
                1.30927301
            ],
            [
                -1.2e-07,
                22.59940583,
                -1.1e-07
            ],
            [
                1.30927301,
                -1.1e-07,
                3.480772
            ]
        ],
        "epsilon_ionic_avg": 13.443844463333336,
        "epsilon_ionic_eig": [
            14.40822611707117,
            3.3239014429288463,
            22.599405829999995
        ],
        "epsilon_electronic": [
            [
                5.36161312,
                0.0,
                0.30422267
            ],
            [
                0.0,
                5.22728516,
                0.0
            ],
            [
                0.30422121,
                0.0,
                3.34437419
            ]
        ],
        "epsilon_electronic_avg": 4.644424156666667,
        "epsilon_electronic_eig": [
            5.406494587108614,
            3.2994927228913866,
            5.22728516
        ]
    },
    "phonon": {
        "lowest_freq": -0.11744229487937059,
        "frequency": [
            -0.11744229487937059,
            -0.0935102799924832,
            -0.024347509511481045,
            1.0129408056571894,
            1.4849116095875246,
            1.6089162208127439,
            1.9226971796958061,
            2.222608774053484,
            2.2926334871061935,
            2.7688861039723416,
            3.428037467635774,
            3.5882693582142084,
            3.710089967275278,
            4.195642106955918,
            4.239046106256323,
            4.48833131748456,
            4.958341768491524,
            5.338127142319088,
            5.3614360319295855,
            5.405904734523809,
            5.412820469309894,
            6.259008305568877,
            6.37339340983978,
            6.600522494770406,
            6.731063115274033,
            7.037158801849041,
            7.1512214958213605,
            7.220321690417422,
            7.6244591369867125,
            7.748830846142934,
            7.8131024042166555,
            8.384723343706682,
            8.700721706969587,
            8.764442777163856,
            8.8907801304279,
            8.999520256442747,
            9.48829556553395,
            9.62668847335631,
            9.76364336257057,
            10.162358179560679,
            10.467102486375405,
            11.198464856709036,
            11.625614336090441,
            11.706622906624093,
            12.512581498858045,
            12.695450023075384,
            12.771591370175036,
            12.878822308945297,
            14.070988110313168,
            14.170288552594513,
            14.803265277406888,
            14.931933242278042,
            15.14186266125765,
            15.67399778028319,
            15.81336873459113,
            16.727453867436047,
            18.601513837483076,
            18.690234201239967,
            18.89825089265644,
            19.0173703320537,
            19.58856396268964,
            20.562825021080588,
            21.6980389764978,
            22.38891802656938,
            23.148087737310203,
            23.378753564578577,
            28.73133487440175,
            28.795432315140275,
            29.133485274068533,
            29.5111444352132,
            30.11523548174918,
            30.29599472572641
        ]
    },
    "born_effective_charge": {
        "avg_abs_trace": 2.534485,
        "tensors": [
            [
                [
                    1.30698,
                    0.0,
                    0.02661
                ],
                [
                    -6e-05,
                    1.30055,
                    -7e-05
                ],
                [
                    0.14626,
                    0.0,
                    1.86337
                ]
            ],
            [
                [
                    1.30711,
                    0.0,
                    0.02656
                ],
                [
                    6e-05,
                    1.30055,
                    7e-05
                ],
                [
                    0.14644,
                    0.0,
                    1.86333
                ]
            ],
            [
                [
                    4.92502,
                    0.00831,
                    -0.45974
                ],
                [
                    -0.2396,
                    5.18282,
                    1.84548
                ],
                [
                    0.28987,
                    0.23629,
                    2.56131
                ]
            ],
            [
                [
                    4.92514,
                    -0.00834,
                    -0.4596
                ],
                [
                    0.2396,
                    5.18282,
                    -1.84548
                ],
                [
                    0.29001,
                    -0.23673,
                    2.56159
                ]
            ],
            [
                [
                    4.92514,
                    0.00834,
                    -0.4596
                ],
                [
                    -0.23992,
                    5.18327,
                    1.84647
                ],
                [
                    0.29001,
                    0.23673,
                    2.56159
                ]
            ],
            [
                [
                    4.92502,
                    -0.00831,
                    -0.45974
                ],
                [
                    0.23992,
                    5.18327,
                    -1.84647
                ],
                [
                    0.28987,
                    -0.23629,
                    2.56131
                ]
            ],
            [
                [
                    7.21057,
                    0.0,
                    2.59495
                ],
                [
                    -0.00045,
                    6.40349,
                    -0.00051
                ],
                [
                    0.78553,
                    0.0,
                    2.19655
                ]
            ],
            [
                [
                    7.21072,
                    0.0,
                    2.59503
                ],
                [
                    0.00045,
                    6.40349,
                    0.00051
                ],
                [
                    0.7857,
                    0.0,
                    2.19643
                ]
            ],
            [
                [
                    -3.44923,
                    1.3541,
                    -0.65483
                ],
                [
                    1.26664,
                    -1.87865,
                    0.26374
                ],
                [
                    -0.21211,
                    0.27981,
                    -0.90201
                ]
            ],
            [
                [
                    -3.44918,
                    -1.35406,
                    -0.65483
                ],
                [
                    -1.26664,
                    -1.87865,
                    -0.26374
                ],
                [
                    -0.21192,
                    -0.27985,
                    -0.90215
                ]
            ],
            [
                [
                    -3.44918,
                    1.35406,
                    -0.65483
                ],
                [
                    1.26694,
                    -1.87833,
                    0.26341
                ],
                [
                    -0.21192,
                    0.27985,
                    -0.90215
                ]
            ],
            [
                [
                    -3.44923,
                    -1.3541,
                    -0.65483
                ],
                [
                    -1.26694,
                    -1.87833,
                    -0.26341
                ],
                [
                    -0.21211,
                    -0.27981,
                    -0.90201
                ]
            ],
            [
                [
                    -0.84513,
                    0.44186,
                    -0.56594
                ],
                [
                    0.40735,
                    -1.4908,
                    0.8687
                ],
                [
                    -0.42722,
                    0.73305,
                    -1.46515
                ]
            ],
            [
                [
                    -0.84533,
                    -0.44197,
                    -0.56543
                ],
                [
                    -0.40735,
                    -1.4908,
                    -0.8687
                ],
                [
                    -0.42784,
                    -0.7333,
                    -1.46441
                ]
            ],
            [
                [
                    -0.84533,
                    0.44197,
                    -0.56543
                ],
                [
                    0.40782,
                    -1.49156,
                    0.86822
                ],
                [
                    -0.42784,
                    0.7333,
                    -1.46441
                ]
            ],
            [
                [
                    -0.84513,
                    -0.44186,
                    -0.56594
                ],
                [
                    -0.40782,
                    -1.49156,
                    -0.86822
                ],
                [
                    -0.42722,
                    -0.73305,
                    -1.46515
                ]
            ],
            [
                [
                    -1.71273,
                    0.0,
                    0.59374
                ],
                [
                    -0.00032,
                    -0.78936,
                    8e-05
                ],
                [
                    0.22046,
                    0.0,
                    -0.82249
                ]
            ],
            [
                [
                    -1.71254,
                    0.0,
                    0.59339
                ],
                [
                    0.00032,
                    -0.78936,
                    -8e-05
                ],
                [
                    0.22164,
                    0.0,
                    -0.82366
                ]
            ],
            [
                [
                    -2.12095,
                    0.0,
                    0.07882
                ],
                [
                    -0.00016,
                    -3.91646,
                    -0.00016
                ],
                [
                    -0.07899,
                    0.0,
                    -0.83231
                ]
            ],
            [
                [
                    -2.12092,
                    0.0,
                    0.07904
                ],
                [
                    0.00016,
                    -3.91646,
                    0.00016
                ],
                [
                    -0.07889,
                    0.0,
                    -0.83234
                ]
            ],
            [
                [
                    -2.97273,
                    1.57079,
                    0.03316
                ],
                [
                    1.58597,
                    -3.31242,
                    2.13145
                ],
                [
                    -0.18734,
                    0.89949,
                    -1.39657
                ]
            ],
            [
                [
                    -2.97269,
                    -1.57094,
                    0.03314
                ],
                [
                    -1.58597,
                    -3.31242,
                    -2.13145
                ],
                [
                    -0.18752,
                    -0.89983,
                    -1.39705
                ]
            ],
            [
                [
                    -2.97269,
                    1.57094,
                    0.03314
                ],
                [
                    1.58568,
                    -3.31256,
                    2.13129
                ],
                [
                    -0.18752,
                    0.89983,
                    -1.39705
                ]
            ],
            [
                [
                    -2.97273,
                    -1.57079,
                    0.03316
                ],
                [
                    -1.58568,
                    -3.31256,
                    -2.13129
                ],
                [
                    -0.18734,
                    -0.89949,
                    -1.39657
                ]
            ]
        ]
    },
    "band_gap": 2.1489000000000003,
    "is_direct": false,
    "formula": "RbV3O8"
}