{
    "mp_id": "mp-1178403",
    "nelements": 3,
    "nsites": 12,
    "elements": [
        "Cs",
        "O",
        "Ti"
    ],
    "structure": {
        "@module": "pymatgen.core.structure",
        "@class": "Structure",
        "charge": null,
        "lattice": {
            "matrix": [
                [
                    5.5189029,
                    -3.79262009,
                    0.0
                ],
                [
                    5.5189029,
                    3.79262009,
                    0.0
                ],
                [
                    0.0,
                    0.0,
                    5.61009101
                ]
            ],
            "a": 6.696436094423661,
            "b": 6.696436094423661,
            "c": 5.61009101,
            "alpha": 90.0,
            "beta": 90.0,
            "gamma": 68.99412219384737,
            "volume": 234.85077446840614
        },
        "sites": [
            {
                "species": [
                    {
                        "element": "Cs",
                        "occu": 1
                    }
                ],
                "abc": [
                    0.49031557,
                    0.18506297,
                    0.75
                ],
                "xyz": [
                    3.7273485830037654,
                    -1.1577071432847341,
                    4.2075682575
                ],
                "label": "Cs",
                "properties": {}
            },
            {
                "species": [
                    {
                        "element": "Cs",
                        "occu": 1
                    }
                ],
                "abc": [
                    0.18506297,
                    0.49031557,
                    0.25
                ],
                "xyz": [
                    3.7273485830037654,
                    1.1577071432847341,
                    1.4025227525
                ],
                "label": "Cs",
                "properties": {}
            },
            {
                "species": [
                    {
                        "element": "Cs",
                        "occu": 1
                    }
                ],
                "abc": [
                    0.50968443,
                    0.81493703,
                    0.25
                ],
                "xyz": [
                    7.310457216996232,
                    1.1577071432847343,
                    1.4025227525
                ],
                "label": "Cs",
                "properties": {}
            },
            {
                "species": [
                    {
                        "element": "Cs",
                        "occu": 1
                    }
                ],
                "abc": [
                    0.81493703,
                    0.50968443,
                    0.75
                ],
                "xyz": [
                    7.310457216996232,
                    -1.1577071432847343,
                    4.2075682575
                ],
                "label": "Cs",
                "properties": {}
            },
            {
                "species": [
                    {
                        "element": "Ti",
                        "occu": 1
                    }
                ],
                "abc": [
                    0.9230585,
                    0.0769415,
                    0.25
                ],
                "xyz": [
                    5.5189029,
                    -3.2090003326905303,
                    1.4025227525
                ],
                "label": "Ti",
                "properties": {}
            },
            {
                "species": [
                    {
                        "element": "Ti",
                        "occu": 1
                    }
                ],
                "abc": [
                    0.0769415,
                    0.9230585,
                    0.75
                ],
                "xyz": [
                    5.5189029,
                    3.2090003326905303,
                    4.2075682575
                ],
                "label": "Ti",
                "properties": {}
            },
            {
                "species": [
                    {
                        "element": "O",
                        "occu": 1
                    }
                ],
                "abc": [
                    0.11641279,
                    0.11641279,
                    0.0
                ],
                "xyz": [
                    1.284941768656182,
                    0.0,
                    0.0
                ],
                "label": "O",
                "properties": {}
            },
            {
                "species": [
                    {
                        "element": "O",
                        "occu": 1
                    }
                ],
                "abc": [
                    0.11641279,
                    0.11641279,
                    0.5
                ],
                "xyz": [
                    1.284941768656182,
                    0.0,
                    2.805045505
                ],
                "label": "O",
                "properties": {}
            },
            {
                "species": [
                    {
                        "element": "O",
                        "occu": 1
                    }
                ],
                "abc": [
                    0.31667181,
                    0.68332819,
                    0.75
                ],
                "xyz": [
                    5.5189029,
                    1.390588352914674,
                    4.2075682575
                ],
                "label": "O",
                "properties": {}
            },
            {
                "species": [
                    {
                        "element": "O",
                        "occu": 1
                    }
                ],
                "abc": [
                    0.68332819,
                    0.31667181,
                    0.25
                ],
                "xyz": [
                    5.5189029,
                    -1.390588352914674,
                    1.4025227525
                ],
                "label": "O",
                "properties": {}
            },
            {
                "species": [
                    {
                        "element": "O",
                        "occu": 1
                    }
                ],
                "abc": [
                    0.88358721,
                    0.88358721,
                    0.0
                ],
                "xyz": [
                    9.752864031343817,
                    0.0,
                    0.0
                ],
                "label": "O",
                "properties": {}
            },
            {
                "species": [
                    {
                        "element": "O",
                        "occu": 1
                    }
                ],
                "abc": [
                    0.88358721,
                    0.88358721,
                    0.5
                ],
                "xyz": [
                    9.752864031343817,
                    0.0,
                    2.805045505
                ],
                "label": "O",
                "properties": {}
            }
        ]
    },
    "spacegroup": {
        "source": "spglib",
        "symbol": "Cmcm",
        "number": 63,
        "point_group": "mmm",
        "crystal_system": "orthorhombic",
        "hall": "-C 2c 2"
    },
    "dielectric": {
        "epsilon_ionic": [
            [
                6.6367793,
                0.0,
                -0.0
            ],
            [
                0.0,
                5.38146377,
                0.0
            ],
            [
                -0.0,
                0.0,
                12.76129084
            ]
        ],
        "epsilon_ionic_avg": 8.259844636666665,
        "epsilon_ionic_eig": [
            6.6367793,
            5.38146377,
            12.76129084
        ],
        "epsilon_electronic": [
            [
                3.60651454,
                0.0,
                0.0
            ],
            [
                0.0,
                3.86420211,
                0.0
            ],
            [
                0.0,
                -0.0,
                4.16162945
            ]
        ],
        "epsilon_electronic_avg": 3.8774487,
        "epsilon_electronic_eig": [
            3.60651454,
            3.86420211,
            4.16162945
        ]
    },
    "phonon": {
        "lowest_freq": -0.17536800046746143,
        "frequency": [
            -0.17536800046746143,
            -0.1314979838011686,
            -0.0572306700960201,
            1.7659883287867488,
            2.00047190478812,
            2.008999606827417,
            2.0646407508420106,
            2.226778402597753,
            2.4177189996676955,
            2.4976435725156856,
            2.666737022601865,
            2.8699046865495026,
            2.9084892455519076,
            3.1394038250322516,
            3.4983937047456264,
            3.7212811813404016,
            4.287416462550036,
            4.470239986260264,
            5.649117180602019,
            6.469550353700184,
            6.709155618605832,
            7.56678032811892,
            8.908641239233276,
            9.228836606024618,
            10.933023860577187,
            11.861530815098005,
            12.011845206062151,
            12.186240464625213,
            12.252090427197746,
            14.944684299519473,
            17.054841913267293,
            17.256633448668648,
            17.69863173598031,
            19.198274539761577,
            21.634224489050926,
            22.88646097704418
        ]
    },
    "born_effective_charge": {
        "avg_abs_trace": 2.2132505555555557,
        "tensors": [
            [
                [
                    1.48269,
                    -0.31438,
                    0.0
                ],
                [
                    -0.24521,
                    1.56241,
                    -0.0
                ],
                [
                    -3e-05,
                    3e-05,
                    1.25233
                ]
            ],
            [
                [
                    1.48269,
                    0.31438,
                    0.0
                ],
                [
                    0.24511,
                    1.56255,
                    0.0
                ],
                [
                    -3e-05,
                    -3e-05,
                    1.25233
                ]
            ],
            [
                [
                    1.48286,
                    -0.31441,
                    0.0
                ],
                [
                    -0.24511,
                    1.56255,
                    0.0
                ],
                [
                    3e-05,
                    -3e-05,
                    1.25233
                ]
            ],
            [
                [
                    1.48286,
                    0.31441,
                    0.0
                ],
                [
                    0.24521,
                    1.56241,
                    -0.0
                ],
                [
                    3e-05,
                    3e-05,
                    1.25233
                ]
            ],
            [
                [
                    2.68562,
                    -1e-05,
                    0.0
                ],
                [
                    0.0,
                    3.19694,
                    0.0
                ],
                [
                    0.0,
                    0.0003,
                    5.44138
                ]
            ],
            [
                [
                    2.68562,
                    1e-05,
                    0.0
                ],
                [
                    0.0,
                    3.19724,
                    0.0
                ],
                [
                    0.0,
                    -0.0003,
                    5.44138
                ]
            ],
            [
                [
                    -2.18341,
                    0.0,
                    0.0
                ],
                [
                    0.0001,
                    -1.45131,
                    -0.49755
                ],
                [
                    0.00029,
                    -0.81314,
                    -3.28425
                ]
            ],
            [
                [
                    -2.18341,
                    0.0,
                    0.0
                ],
                [
                    0.0001,
                    -1.45131,
                    0.49755
                ],
                [
                    0.00029,
                    0.81314,
                    -3.28425
                ]
            ],
            [
                [
                    -1.28431,
                    -0.00035,
                    0.0
                ],
                [
                    0.0,
                    -3.41957,
                    0.0
                ],
                [
                    0.0,
                    0.00018,
                    -1.37753
                ]
            ],
            [
                [
                    -1.28431,
                    0.00035,
                    0.0
                ],
                [
                    0.0,
                    -3.41929,
                    0.0
                ],
                [
                    0.0,
                    -0.00018,
                    -1.37753
                ]
            ],
            [
                [
                    -2.18345,
                    0.0,
                    0.0
                ],
                [
                    -0.0001,
                    -1.45131,
                    -0.49755
                ],
                [
                    -0.00029,
                    -0.81314,
                    -3.28425
                ]
            ],
            [
                [
                    -2.18345,
                    0.0,
                    0.0
                ],
                [
                    -0.0001,
                    -1.45131,
                    0.49755
                ],
                [
                    -0.00029,
                    0.81314,
                    -3.28425
                ]
            ]
        ]
    },
    "band_gap": 3.4880000000000004,
    "is_direct": false,
    "formula": "Cs2TiO3"
}