{
    "mp_id": "mp-15573",
    "nelements": 3,
    "nsites": 16,
    "elements": [
        "As",
        "O",
        "Tl"
    ],
    "structure": {
        "@module": "pymatgen.core.structure",
        "@class": "Structure",
        "charge": null,
        "lattice": {
            "matrix": [
                [
                    8.60765001,
                    3.3e-07,
                    0.0
                ],
                [
                    -4.30382529,
                    7.45444318,
                    0.0
                ],
                [
                    0.0,
                    0.0,
                    5.18592089
                ]
            ],
            "a": 8.607650010000008,
            "b": 8.607649809947667,
            "c": 5.18592089,
            "alpha": 90.0,
            "beta": 90.0,
            "gamma": 120.00000076275406,
            "volume": 332.75585506954815
        },
        "sites": [
            {
                "species": [
                    {
                        "element": "Tl",
                        "occu": 1
                    }
                ],
                "abc": [
                    0.72841781,
                    0.08566744,
                    0.00645426
                ],
                "xyz": [
                    5.901267874729121,
                    0.6386033042339365,
                    0.0334712817634914
                ],
                "label": "Tl",
                "properties": {}
            },
            {
                "species": [
                    {
                        "element": "Tl",
                        "occu": 1
                    }
                ],
                "abc": [
                    0.91433256,
                    0.64275037,
                    0.00645426
                ],
                "xyz": [
                    5.103969371664467,
                    4.791346413818722,
                    0.0334712817634914
                ],
                "label": "Tl",
                "properties": {}
            },
            {
                "species": [
                    {
                        "element": "Tl",
                        "occu": 1
                    }
                ],
                "abc": [
                    0.64275037,
                    0.72841781,
                    0.50645426
                ],
                "xyz": [
                    2.3975872363935893,
                    5.429949388052658,
                    2.626431726763492
                ],
                "label": "Tl",
                "properties": {}
            },
            {
                "species": [
                    {
                        "element": "Tl",
                        "occu": 1
                    }
                ],
                "abc": [
                    0.27158219,
                    0.91433256,
                    0.50645426
                ],
                "xyz": [
                    -1.59744315472912,
                    6.815840205766063,
                    2.626431726763492
                ],
                "label": "Tl",
                "properties": {}
            },
            {
                "species": [
                    {
                        "element": "Tl",
                        "occu": 1
                    }
                ],
                "abc": [
                    0.08566744,
                    0.35724963,
                    0.50645426
                ],
                "xyz": [
                    -0.800144651664468,
                    2.6630970961812785,
                    2.626431726763492
                ],
                "label": "Tl",
                "properties": {}
            },
            {
                "species": [
                    {
                        "element": "Tl",
                        "occu": 1
                    }
                ],
                "abc": [
                    0.35724963,
                    0.27158219,
                    0.00645426
                ],
                "xyz": [
                    1.906237483606411,
                    2.0244941219473422,
                    0.0334712817634914
                ],
                "label": "Tl",
                "properties": {}
            },
            {
                "species": [
                    {
                        "element": "As",
                        "occu": 1
                    }
                ],
                "abc": [
                    0.333333,
                    0.666667,
                    0.98334128
                ],
                "xyz": [
                    -4.493825099594062e-06,
                    4.9696313814809505,
                    5.099530085951339
                ],
                "label": "As",
                "properties": {}
            },
            {
                "species": [
                    {
                        "element": "As",
                        "occu": 1
                    }
                ],
                "abc": [
                    0.666667,
                    0.333333,
                    0.48334128
                ],
                "xyz": [
                    4.303829213825101,
                    2.4848121285190503,
                    2.5065696409513394
                ],
                "label": "As",
                "properties": {}
            },
            {
                "species": [
                    {
                        "element": "O",
                        "occu": 1
                    }
                ],
                "abc": [
                    0.60654261,
                    0.12046325,
                    0.58260854
                ],
                "xyz": [
                    4.702453721166334,
                    0.8979866525621963,
                    3.0213617982784005
                ],
                "label": "O",
                "properties": {}
            },
            {
                "species": [
                    {
                        "element": "O",
                        "occu": 1
                    }
                ],
                "abc": [
                    0.48607936,
                    0.60654261,
                    0.08260854
                ],
                "xyz": [
                    1.5735475835841868,
                    4.521437582900089,
                    0.42840135327840057
                ],
                "label": "O",
                "properties": {}
            },
            {
                "species": [
                    {
                        "element": "O",
                        "occu": 1
                    }
                ],
                "abc": [
                    0.12046325,
                    0.51392064,
                    0.08260854
                ],
                "xyz": [
                    -1.174919152417853,
                    3.830992249662108,
                    0.42840135327840057
                ],
                "label": "O",
                "properties": {}
            },
            {
                "species": [
                    {
                        "element": "O",
                        "occu": 1
                    }
                ],
                "abc": [
                    0.87953675,
                    0.48607936,
                    0.58260854
                ],
                "xyz": [
                    5.478743872417853,
                    3.6234512603378928,
                    3.0213617982784005
                ],
                "label": "O",
                "properties": {}
            },
            {
                "species": [
                    {
                        "element": "O",
                        "occu": 1
                    }
                ],
                "abc": [
                    0.333333,
                    0.666667,
                    0.64756933
                ],
                "xyz": [
                    -4.493825099594062e-06,
                    4.9696313814809505,
                    3.358243316170304
                ],
                "label": "O",
                "properties": {}
            },
            {
                "species": [
                    {
                        "element": "O",
                        "occu": 1
                    }
                ],
                "abc": [
                    0.39345739,
                    0.87953675,
                    0.08260854
                ],
                "xyz": [
                    -0.39862900116633293,
                    6.556456857437804,
                    0.42840135327840057
                ],
                "label": "O",
                "properties": {}
            },
            {
                "species": [
                    {
                        "element": "O",
                        "occu": 1
                    }
                ],
                "abc": [
                    0.666667,
                    0.333333,
                    0.14756933
                ],
                "xyz": [
                    4.303829213825101,
                    2.4848121285190503,
                    0.7652828711703037
                ],
                "label": "O",
                "properties": {}
            },
            {
                "species": [
                    {
                        "element": "O",
                        "occu": 1
                    }
                ],
                "abc": [
                    0.51392064,
                    0.39345739,
                    0.58260854
                ],
                "xyz": [
                    2.730277136415814,
                    2.9330059270999116,
                    3.0213617982784005
                ],
                "label": "O",
                "properties": {}
            }
        ]
    },
    "spacegroup": {
        "source": "spglib",
        "symbol": "P6_3",
        "number": 173,
        "point_group": "6",
        "crystal_system": "hexagonal",
        "hall": "P 6c"
    },
    "dielectric": {
        "epsilon_ionic": [
            [
                5.77682741,
                0.00082326,
                0.0008432
            ],
            [
                0.00082326,
                5.77700246,
                -0.00023106
            ],
            [
                0.0008432,
                -0.00023106,
                13.67690047
            ]
        ],
        "epsilon_ionic_avg": 8.410243446666664,
        "epsilon_ionic_eig": [
            13.676900566750435,
            5.77608695816209,
            5.777742815087469
        ],
        "epsilon_electronic": [
            [
                4.7333424,
                -7.768e-05,
                0.0
            ],
            [
                7.768e-05,
                4.73334168,
                0.0
            ],
            [
                -0.0,
                0.0,
                4.97221208
            ]
        ],
        "epsilon_electronic_avg": 4.812965386666667,
        "epsilon_electronic_eig": [
            4.73334204,
            4.73334204,
            4.97221208
        ]
    },
    "phonon": {
        "lowest_freq": -0.03311011269541418,
        "frequency": [
            -0.03311011269541418,
            -0.030766358115933673,
            -0.03076635581224727,
            0.8845067183715248,
            1.034262476746393,
            1.1232727117161805,
            1.1232727215072187,
            1.3146326708378773,
            1.3254019150819314,
            1.3254019473514052,
            1.449277860925227,
            1.4492778617684061,
            1.5381597543678804,
            1.5381597551623367,
            1.8274918071108504,
            1.8274918739784898,
            2.3491344719854235,
            2.4560232096260144,
            2.8957045853796024,
            3.2199537746186926,
            3.219953956782891,
            3.38123536099218,
            3.522545828923786,
            3.5225460578833077,
            5.02356810540873,
            5.215118671469083,
            5.215118835492283,
            5.358913070309001,
            5.689965007312492,
            5.689965179123831,
            9.199581162400197,
            9.199581401498165,
            9.636638737927363,
            9.636639080308331,
            10.347348629997686,
            10.401214274502257,
            11.127723954055371,
            11.12772445920835,
            11.354613070688814,
            11.354613587272071,
            21.275701579830184,
            21.428495653841413,
            22.8063967787664,
            22.80639774323315,
            23.19023394095895,
            23.225217230018853,
            23.362241220359568,
            23.36224221418596
        ]
    },
    "born_effective_charge": {
        "avg_abs_trace": 2.1619110416666665,
        "tensors": [
            [
                [
                    1.69014,
                    -0.02395,
                    0.10314
                ],
                [
                    -0.02707,
                    1.76245,
                    -0.103
                ],
                [
                    -0.04378,
                    -0.00072,
                    1.69473
                ]
            ],
            [
                [
                    1.72341,
                    0.04716,
                    0.03637
                ],
                [
                    0.04367,
                    1.72947,
                    0.14165
                ],
                [
                    0.02252,
                    -0.03755,
                    1.69473
                ]
            ],
            [
                [
                    1.76381,
                    -0.01696,
                    0.14159
                ],
                [
                    -0.02186,
                    1.68573,
                    0.03921
                ],
                [
                    -0.02126,
                    -0.03827,
                    1.69473
                ]
            ],
            [
                [
                    1.69019,
                    -0.0248,
                    -0.10247
                ],
                [
                    -0.02629,
                    1.76234,
                    0.10308
                ],
                [
                    0.04378,
                    0.00072,
                    1.69473
                ]
            ],
            [
                [
                    1.72333,
                    0.04748,
                    -0.03612
                ],
                [
                    0.04228,
                    1.72936,
                    -0.14286
                ],
                [
                    -0.02252,
                    0.03755,
                    1.69473
                ]
            ],
            [
                [
                    1.76374,
                    -0.01817,
                    -0.14162
                ],
                [
                    -0.02083,
                    1.68574,
                    -0.03881
                ],
                [
                    0.02126,
                    0.03827,
                    1.69473
                ]
            ],
            [
                [
                    3.4062,
                    0.20222,
                    -0.00486
                ],
                [
                    -0.20467,
                    3.4031,
                    0.00094
                ],
                [
                    0.0,
                    0.0,
                    3.6928
                ]
            ],
            [
                [
                    3.40711,
                    0.20146,
                    0.00534
                ],
                [
                    -0.20285,
                    3.40577,
                    -0.00049
                ],
                [
                    0.0,
                    0.0,
                    3.6928
                ]
            ],
            [
                [
                    -1.77724,
                    -0.12406,
                    -0.37185
                ],
                [
                    -0.1257,
                    -2.57329,
                    0.43711
                ],
                [
                    -0.52736,
                    0.37579,
                    -2.01659
                ]
            ],
            [
                [
                    -2.26511,
                    0.40737,
                    -0.56366
                ],
                [
                    0.40785,
                    -2.08426,
                    -0.10295
                ],
                [
                    -0.58913,
                    -0.26881,
                    -2.01659
                ]
            ],
            [
                [
                    -2.48205,
                    -0.28204,
                    0.19346
                ],
                [
                    -0.28135,
                    -1.86554,
                    0.53934
                ],
                [
                    0.06177,
                    0.6446,
                    -2.01659
                ]
            ],
            [
                [
                    -2.48238,
                    -0.28184,
                    -0.19364
                ],
                [
                    -0.28237,
                    -1.86648,
                    -0.5394
                ],
                [
                    -0.06177,
                    -0.6446,
                    -2.01659
                ]
            ],
            [
                [
                    -2.05892,
                    -0.2084,
                    0.00244
                ],
                [
                    0.2088,
                    -2.05866,
                    -0.0005
                ],
                [
                    0.0,
                    0.0,
                    -2.72722
                ]
            ],
            [
                [
                    -1.77718,
                    -0.12466,
                    0.37146
                ],
                [
                    -0.12568,
                    -2.57215,
                    -0.43698
                ],
                [
                    0.52736,
                    -0.37579,
                    -2.01659
                ]
            ],
            [
                [
                    -2.05936,
                    -0.20834,
                    -0.00288
                ],
                [
                    0.20857,
                    -2.05914,
                    0.00044
                ],
                [
                    0.0,
                    0.0,
                    -2.72722
                ]
            ],
            [
                [
                    -2.26567,
                    0.40755,
                    0.56329
                ],
                [
                    0.4075,
                    -2.08445,
                    0.1032
                ],
                [
                    0.58913,
                    0.26881,
                    -2.01659
                ]
            ]
        ]
    },
    "band_gap": 2.3892,
    "is_direct": false,
    "formula": "Tl3AsO4"
}