{
    "mp_id": "mp-18740",
    "nelements": 3,
    "nsites": 11,
    "elements": [
        "Cd",
        "O",
        "V"
    ],
    "structure": {
        "@module": "pymatgen.core.structure",
        "@class": "Structure",
        "charge": null,
        "lattice": {
            "matrix": [
                [
                    3.48581826,
                    -4.5421978,
                    0.00089509
                ],
                [
                    3.48581826,
                    4.5421978,
                    0.00089509
                ],
                [
                    -1.12189651,
                    0.0,
                    4.90820559
                ]
            ],
            "a": 5.725599584083783,
            "b": 5.725599584083783,
            "c": 5.034792338603195,
            "alpha": 97.78803052882957,
            "beta": 97.78803052882957,
            "gamma": 104.99257829021117,
            "volume": 155.43507038935726
        },
        "sites": [
            {
                "species": [
                    {
                        "element": "V",
                        "occu": 1
                    }
                ],
                "abc": [
                    0.23041823,
                    0.23041823,
                    0.90674865
                ],
                "xyz": [
                    0.5891140012595479,
                    0.0,
                    4.450921282761935
                ],
                "label": "V",
                "properties": {}
            },
            {
                "species": [
                    {
                        "element": "V",
                        "occu": 1
                    }
                ],
                "abc": [
                    0.76958177,
                    0.76958177,
                    0.09325135
                ],
                "xyz": [
                    5.260626008740452,
                    0.0,
                    0.4590744872380651
                ],
                "label": "V",
                "properties": {}
            },
            {
                "species": [
                    {
                        "element": "Cd",
                        "occu": 1
                    }
                ],
                "abc": [
                    0.30662312,
                    0.69337688,
                    0.5
                ],
                "xyz": [
                    2.924870005,
                    1.756712077813728,
                    2.454997885
                ],
                "label": "Cd",
                "properties": {}
            },
            {
                "species": [
                    {
                        "element": "Cd",
                        "occu": 1
                    }
                ],
                "abc": [
                    0.69337688,
                    0.30662312,
                    0.5
                ],
                "xyz": [
                    2.924870005,
                    -1.756712077813728,
                    2.454997885
                ],
                "label": "Cd",
                "properties": {}
            },
            {
                "species": [
                    {
                        "element": "O",
                        "occu": 1
                    }
                ],
                "abc": [
                    0.9194457,
                    0.60586283,
                    0.28126426
                ],
                "xyz": [
                    5.0013989343260254,
                    -1.4243554222316859,
                    1.381868101611331
                ],
                "label": "O",
                "properties": {}
            },
            {
                "species": [
                    {
                        "element": "O",
                        "occu": 1
                    }
                ],
                "abc": [
                    0.39413717,
                    0.0805543,
                    0.71873574
                ],
                "xyz": [
                    0.8483410756739747,
                    -1.4243554222316859,
                    3.5281276683886684
                ],
                "label": "O",
                "properties": {}
            },
            {
                "species": [
                    {
                        "element": "O",
                        "occu": 1
                    }
                ],
                "abc": [
                    0.0805543,
                    0.39413717,
                    0.71873574
                ],
                "xyz": [
                    0.8483410756739747,
                    1.4243554222316859,
                    3.5281276683886684
                ],
                "label": "O",
                "properties": {}
            },
            {
                "species": [
                    {
                        "element": "O",
                        "occu": 1
                    }
                ],
                "abc": [
                    0.60586283,
                    0.9194457,
                    0.28126426
                ],
                "xyz": [
                    5.0013989343260254,
                    1.4243554222316859,
                    1.381868101611331
                ],
                "label": "O",
                "properties": {}
            },
            {
                "species": [
                    {
                        "element": "O",
                        "occu": 1
                    }
                ],
                "abc": [
                    0.0,
                    0.0,
                    0.0
                ],
                "xyz": [
                    0.0,
                    0.0,
                    0.0
                ],
                "label": "O",
                "properties": {}
            },
            {
                "species": [
                    {
                        "element": "O",
                        "occu": 1
                    }
                ],
                "abc": [
                    0.59931325,
                    0.59931325,
                    0.78782667
                ],
                "xyz": [
                    3.2943341490619686,
                    0.0,
                    3.86788814423897
                ],
                "label": "O",
                "properties": {}
            },
            {
                "species": [
                    {
                        "element": "O",
                        "occu": 1
                    }
                ],
                "abc": [
                    0.40068675,
                    0.40068675,
                    0.21217333
                ],
                "xyz": [
                    2.5554058609380315,
                    0.0,
                    1.0421076257610296
                ],
                "label": "O",
                "properties": {}
            }
        ]
    },
    "spacegroup": {
        "source": "spglib",
        "symbol": "C2/m",
        "number": 12,
        "point_group": "2/m",
        "crystal_system": "monoclinic",
        "hall": "-C 2y"
    },
    "dielectric": {
        "epsilon_ionic": [
            [
                32.85335336,
                -1e-08,
                -3.3782585
            ],
            [
                -1e-08,
                6.99857702,
                1e-08
            ],
            [
                -3.3782585,
                1e-08,
                7.25248757
            ]
        ],
        "epsilon_ionic_avg": 15.701472650000008,
        "epsilon_ionic_eig": [
            33.291640674756714,
            6.814200255243313,
            6.998577020000001
        ],
        "epsilon_electronic": [
            [
                4.99215807,
                0.0,
                0.01002372
            ],
            [
                0.0,
                4.6647515,
                0.0
            ],
            [
                0.01002247,
                0.0,
                4.77922973
            ]
        ],
        "epsilon_electronic_avg": 4.812046433333333,
        "epsilon_electronic_eig": [
            4.992628842496723,
            4.778758957503277,
            4.6647515
        ]
    },
    "phonon": {
        "lowest_freq": -0.15019579613167805,
        "frequency": [
            -0.15019579613167805,
            -0.04235182862918959,
            -0.02175206073133815,
            1.5335991620967546,
            2.5222468435628227,
            3.0096038685907707,
            3.270145947931141,
            3.3843212358892036,
            3.7996032519400456,
            4.045324823666633,
            4.507189959167055,
            5.11195653453933,
            6.674657137080916,
            7.454788882897887,
            7.5617178029613745,
            7.795269056902206,
            7.932798702391524,
            8.742314255725468,
            8.869181125365333,
            9.449721831954013,
            9.627257561431675,
            10.080671342767127,
            10.564999047547166,
            11.144738423697332,
            12.905339660894375,
            13.641679289154611,
            20.198746420194603,
            22.705798245041176,
            23.44427283766706,
            24.167566108427753,
            25.12266144659517,
            25.159720676475608,
            26.347272957522932
        ]
    },
    "born_effective_charge": {
        "avg_abs_trace": 2.738159696969697,
        "tensors": [
            [
                [
                    5.7103,
                    0.0,
                    -0.26004
                ],
                [
                    0.00026,
                    4.19827,
                    -5e-05
                ],
                [
                    -0.19617,
                    0.0,
                    4.31471
                ]
            ],
            [
                [
                    5.71102,
                    0.0,
                    -0.25981
                ],
                [
                    -0.00026,
                    4.19827,
                    5e-05
                ],
                [
                    -0.19663,
                    0.0,
                    4.31452
                ]
            ],
            [
                [
                    2.55194,
                    2e-05,
                    0.08391
                ],
                [
                    -0.0,
                    2.80488,
                    0.0
                ],
                [
                    0.04577,
                    7e-05,
                    3.0094
                ]
            ],
            [
                [
                    2.55194,
                    -2e-05,
                    0.08391
                ],
                [
                    0.0,
                    2.80499,
                    0.0
                ],
                [
                    0.04577,
                    -7e-05,
                    3.0094
                ]
            ],
            [
                [
                    -1.37511,
                    -0.28921,
                    0.36245
                ],
                [
                    -0.21915,
                    -2.90617,
                    1.59104
                ],
                [
                    0.23143,
                    1.61295,
                    -1.83591
                ]
            ],
            [
                [
                    -1.37521,
                    0.28931,
                    0.3624
                ],
                [
                    0.21915,
                    -2.90617,
                    -1.59104
                ],
                [
                    0.2316,
                    -1.61273,
                    -1.8361
                ]
            ],
            [
                [
                    -1.37521,
                    -0.28931,
                    0.3624
                ],
                [
                    -0.2192,
                    -2.90594,
                    1.591
                ],
                [
                    0.2316,
                    1.61273,
                    -1.8361
                ]
            ],
            [
                [
                    -1.37511,
                    0.28921,
                    0.36245
                ],
                [
                    0.2192,
                    -2.90594,
                    -1.591
                ],
                [
                    0.23143,
                    -1.61295,
                    -1.83591
                ]
            ],
            [
                [
                    -6.63334,
                    0.0,
                    1.74289
                ],
                [
                    -0.0,
                    -0.49874,
                    0.0
                ],
                [
                    1.70858,
                    0.0,
                    -0.91667
                ]
            ],
            [
                [
                    -2.19578,
                    0.0,
                    -1.42051
                ],
                [
                    4e-05,
                    -0.94172,
                    0.00012
                ],
                [
                    -1.16688,
                    0.0,
                    -3.19333
                ]
            ],
            [
                [
                    -2.19545,
                    0.0,
                    -1.42006
                ],
                [
                    -4e-05,
                    -0.94172,
                    -0.00012
                ],
                [
                    -1.16648,
                    0.0,
                    -3.194
                ]
            ]
        ]
    },
    "band_gap": 2.4793,
    "is_direct": false,
    "formula": "V2Cd2O7"
}