{
    "mp_id": "mp-1222841",
    "nelements": 4,
    "nsites": 24,
    "elements": [
        "B",
        "La",
        "O",
        "Si"
    ],
    "structure": {
        "@module": "pymatgen.core.structure",
        "@class": "Structure",
        "charge": null,
        "lattice": {
            "matrix": [
                [
                    6.88454607,
                    -2e-08,
                    0.0
                ],
                [
                    -3.44227302,
                    5.96219252,
                    0.0
                ],
                [
                    0.0,
                    0.0,
                    6.69032193
                ]
            ],
            "a": 6.88454607,
            "b": 6.8845466945735705,
            "c": 6.69032193,
            "alpha": 90.0,
            "beta": 90.0,
            "gamma": 119.99999702127035,
            "volume": 274.61757075617635
        },
        "sites": [
            {
                "species": [
                    {
                        "element": "La",
                        "occu": 1
                    }
                ],
                "abc": [
                    0.74683781,
                    0.07999311,
                    0.16535371
                ],
                "xyz": [
                    4.866281185424015,
                    0.47693430715678103,
                    1.1062695522198602
                ],
                "label": "La",
                "properties": {}
            },
            {
                "species": [
                    {
                        "element": "La",
                        "occu": 1
                    }
                ],
                "abc": [
                    0.3331563,
                    0.25316219,
                    0.83201971
                ],
                "xyz": [
                    1.422176519539627,
                    1.509401708901693,
                    5.56647971200524
                ],
                "label": "La",
                "properties": {}
            },
            {
                "species": [
                    {
                        "element": "La",
                        "occu": 1
                    }
                ],
                "abc": [
                    0.92000689,
                    0.6668437,
                    0.49868671
                ],
                "xyz": [
                    4.038371741855448,
                    3.9758505017489867,
                    3.33637463211255
                ],
                "label": "La",
                "properties": {}
            },
            {
                "species": [
                    {
                        "element": "Si",
                        "occu": 1
                    }
                ],
                "abc": [
                    0.75049086,
                    0.08120582,
                    0.66387395
                ],
                "xyz": [
                    4.887256297530944,
                    0.4841647175746492,
                    4.441530446440724
                ],
                "label": "Si",
                "properties": {}
            },
            {
                "species": [
                    {
                        "element": "Si",
                        "occu": 1
                    }
                ],
                "abc": [
                    0.33071496,
                    0.24950914,
                    0.33054095
                ],
                "xyz": [
                    1.4179437972928044,
                    1.4876215215653337,
                    2.2114253665480335
                ],
                "label": "Si",
                "properties": {}
            },
            {
                "species": [
                    {
                        "element": "Si",
                        "occu": 1
                    }
                ],
                "abc": [
                    0.91879418,
                    0.66928504,
                    0.99720795
                ],
                "xyz": [
                    4.021619025176252,
                    3.9904062408600174,
                    6.671642216655343
                ],
                "label": "Si",
                "properties": {}
            },
            {
                "species": [
                    {
                        "element": "B",
                        "occu": 1
                    }
                ],
                "abc": [
                    0.3485342,
                    0.78213637,
                    0.86004926
                ],
                "xyz": [
                    -0.29282716754114313,
                    4.663247607863269,
                    5.754006425058272
                ],
                "label": "B",
                "properties": {}
            },
            {
                "species": [
                    {
                        "element": "B",
                        "occu": 1
                    }
                ],
                "abc": [
                    0.43360317,
                    0.6514658,
                    0.52671626
                ],
                "xyz": [
                    0.7426378531703257,
                    3.884164511123753,
                    3.523901345165582
                ],
                "label": "B",
                "properties": {}
            },
            {
                "species": [
                    {
                        "element": "B",
                        "occu": 1
                    }
                ],
                "abc": [
                    0.21786363,
                    0.56639683,
                    0.19338226
                ],
                "xyz": [
                    -0.44980032881009246,
                    3.3769669388204386,
                    1.2937895749509618
                ],
                "label": "B",
                "properties": {}
            },
            {
                "species": [
                    {
                        "element": "O",
                        "occu": 1
                    }
                ],
                "abc": [
                    0.7251833,
                    0.5304745,
                    0.83503562
                ],
                "xyz": [
                    3.1665197788966406,
                    3.1627910814470743,
                    5.586657120817146
                ],
                "label": "O",
                "properties": {}
            },
            {
                "species": [
                    {
                        "element": "O",
                        "occu": 1
                    }
                ],
                "abc": [
                    0.8052912,
                    0.2748167,
                    0.50170262
                ],
                "xyz": [
                    4.59807025431015,
                    1.6385100570052602,
                    3.3565520409244565
                ],
                "label": "O",
                "properties": {}
            },
            {
                "species": [
                    {
                        "element": "O",
                        "occu": 1
                    }
                ],
                "abc": [
                    0.4695255,
                    0.1947088,
                    0.16836862
                ],
                "xyz": [
                    2.562229086793209,
                    1.160891341547666,
                    1.1264402707098364
                ],
                "label": "O",
                "properties": {}
            },
            {
                "species": [
                    {
                        "element": "O",
                        "occu": 1
                    }
                ],
                "abc": [
                    0.93792764,
                    0.12160764,
                    0.82918607
                ],
                "xyz": [
                    6.038599349708502,
                    0.7250481428243001,
                    5.547521748171515
                ],
                "label": "O",
                "properties": {}
            },
            {
                "species": [
                    {
                        "element": "O",
                        "occu": 1
                    }
                ],
                "abc": [
                    0.18368001,
                    0.06207236,
                    0.49585307
                ],
                "xyz": [
                    1.0508834808673335,
                    0.370087356817147,
                    3.317416668278825
                ],
                "label": "O",
                "properties": {}
            },
            {
                "species": [
                    {
                        "element": "O",
                        "occu": 1
                    }
                ],
                "abc": [
                    0.87839236,
                    0.81631999,
                    0.16251907
                ],
                "xyz": [
                    3.237336392692355,
                    4.867056920736627,
                    1.087304898064205
                ],
                "label": "O",
                "properties": {}
            },
            {
                "species": [
                    {
                        "element": "O",
                        "occu": 1
                    }
                ],
                "abc": [
                    0.14287451,
                    0.80694819,
                    0.84930127
                ],
                "xyz": [
                    -1.794109836651158,
                    4.811180459588049,
                    5.68209891185785
                ],
                "label": "O",
                "properties": {}
            },
            {
                "species": [
                    {
                        "element": "O",
                        "occu": 1
                    }
                ],
                "abc": [
                    0.66407367,
                    0.85712549,
                    0.51596827
                ],
                "xyz": [
                    1.6213858260076965,
                    5.110347171897861,
                    3.451993831965161
                ],
                "label": "O",
                "properties": {}
            },
            {
                "species": [
                    {
                        "element": "O",
                        "occu": 1
                    }
                ],
                "abc": [
                    0.19305181,
                    0.33592633,
                    0.18263427
                ],
                "xyz": [
                    0.17272393737527003,
                    2.0028574481360155,
                    1.221882061750541
                ],
                "label": "O",
                "properties": {}
            },
            {
                "species": [
                    {
                        "element": "O",
                        "occu": 1
                    }
                ],
                "abc": [
                    0.52898791,
                    0.01577915,
                    0.80886606
                ],
                "xyz": [
                    3.5875254945444808,
                    0.0940783195221998,
                    5.411574339650696
                ],
                "label": "O",
                "properties": {}
            },
            {
                "species": [
                    {
                        "element": "O",
                        "occu": 1
                    }
                ],
                "abc": [
                    0.48679124,
                    0.47101209,
                    0.47553206
                ],
                "xyz": [
                    1.729984508751615,
                    2.8082647500917424,
                    3.1814625694360754
                ],
                "label": "O",
                "properties": {}
            },
            {
                "species": [
                    {
                        "element": "O",
                        "occu": 1
                    }
                ],
                "abc": [
                    0.98422085,
                    0.51320876,
                    0.14219906
                ],
                "xyz": [
                    5.009309116703904,
                    3.0598494103860583,
                    0.9513574895433856
                ],
                "label": "O",
                "properties": {}
            },
            {
                "species": [
                    {
                        "element": "O",
                        "occu": 1
                    }
                ],
                "abc": [
                    0.34276282,
                    0.61363809,
                    0.72697008
                ],
                "xyz": [
                    0.24745658412178573,
                    3.658628423329831,
                    4.863663868677854
                ],
                "label": "O",
                "properties": {}
            },
            {
                "species": [
                    {
                        "element": "O",
                        "occu": 1
                    }
                ],
                "abc": [
                    0.27087527,
                    0.65723718,
                    0.39363708
                ],
                "xyz": [
                    -0.3975365369161947,
                    3.9185745930443883,
                    2.633558788785164
                ],
                "label": "O",
                "properties": {}
            },
            {
                "species": [
                    {
                        "element": "O",
                        "occu": 1
                    }
                ],
                "abc": [
                    0.38636191,
                    0.72912473,
                    0.06030408
                ],
                "xyz": [
                    0.15007998279440882,
                    4.3471820036257816,
                    0.4034537088924744
                ],
                "label": "O",
                "properties": {}
            }
        ]
    },
    "spacegroup": {
        "source": "spglib",
        "symbol": "P3_1",
        "number": 144,
        "point_group": "3",
        "crystal_system": "trigonal",
        "hall": "P 31"
    },
    "dielectric": {
        "epsilon_ionic": [
            [
                7.11190435,
                -0.00017925,
                1.1e-06
            ],
            [
                -0.00017925,
                7.11201377,
                -2.698e-05
            ],
            [
                1.1e-06,
                -2.698e-05,
                8.47872063
            ]
        ],
        "epsilon_ionic_avg": 7.567546249999999,
        "epsilon_ionic_eig": [
            7.111771646527438,
            7.1121464729390595,
            8.478720630533498
        ],
        "epsilon_electronic": [
            [
                3.47408648,
                -9.3e-07,
                0.0
            ],
            [
                9.3e-07,
                3.4740868,
                0.0
            ],
            [
                0.0,
                -0.0,
                3.54068069
            ]
        ],
        "epsilon_electronic_avg": 3.4962846566666665,
        "epsilon_electronic_eig": [
            3.4740866399999994,
            3.4740866399999994,
            3.54068069
        ]
    },
    "phonon": {
        "lowest_freq": -0.05380409304362272,
        "frequency": [
            -0.05380409304362272,
            -0.053804090545298375,
            -0.042874440695258476,
            2.7608302403256735,
            2.896680660996086,
            2.89668066521471,
            3.3733243059050104,
            3.373324309527552,
            3.656970631142928,
            3.9273977550628154,
            4.272806749270821,
            4.272806757850666,
            4.785543084758722,
            5.300705376068119,
            5.312197008758216,
            5.3121971927876315,
            5.900673526075556,
            5.937408399493439,
            5.937408440656201,
            7.2013074575979505,
            7.20130752547455,
            7.246809241974901,
            8.061684567110726,
            8.061684582268857,
            8.899029664122303,
            9.06488048542433,
            9.06488055282735,
            9.67235871608416,
            10.600126061442063,
            10.600126119082919,
            10.807967396024134,
            11.490598154038716,
            11.627173674225796,
            11.627173737285005,
            12.75326475186586,
            12.753264895593839,
            13.452494268759486,
            13.829364518757808,
            13.82936455410291,
            13.973425249453822,
            15.21237378827233,
            15.21705716224886,
            15.217057298766788,
            16.159629536268397,
            16.159629536268397,
            17.413730820894322,
            18.838457271348695,
            18.838457401083378,
            19.610036777043522,
            21.437463139219776,
            21.437463253225864,
            23.867247066302884,
            23.86724747590208,
            24.282200511894043,
            25.61308768806115,
            25.67690419868418,
            25.676904531824206,
            26.266392741256404,
            27.204082621169512,
            27.204082845768273,
            27.962489223344654,
            28.603725744431742,
            28.603726086205587,
            29.583104366626255,
            29.687512031330414,
            29.923672281064533,
            29.923672321901787,
            30.413081762090723,
            30.41308244515241,
            30.499893135405248,
            33.87064360156,
            33.87064363763846
        ]
    },
    "born_effective_charge": {
        "avg_abs_trace": 2.4722516666666667,
        "tensors": [
            [
                [
                    4.44638,
                    -0.23262,
                    -0.10772
                ],
                [
                    -0.26418,
                    4.07154,
                    0.22303
                ],
                [
                    -0.06258,
                    0.22472,
                    4.00705
                ]
            ],
            [
                [
                    4.38009,
                    0.30209,
                    0.24698
                ],
                [
                    0.27096,
                    4.13778,
                    -0.01814
                ],
                [
                    0.2259,
                    -0.05817,
                    4.00705
                ]
            ],
            [
                [
                    3.95015,
                    -0.02261,
                    -0.13929
                ],
                [
                    -0.05396,
                    4.5681,
                    -0.20492
                ],
                [
                    -0.16332,
                    -0.16655,
                    4.00705
                ]
            ],
            [
                [
                    2.98205,
                    0.08913,
                    0.16714
                ],
                [
                    0.13298,
                    3.08168,
                    -0.10393
                ],
                [
                    0.11972,
                    -0.15432,
                    3.56601
                ]
            ],
            [
                [
                    2.96084,
                    -0.12085,
                    -0.17346
                ],
                [
                    -0.07691,
                    3.10294,
                    -0.09275
                ],
                [
                    -0.19351,
                    -0.02652,
                    3.56601
                ]
            ],
            [
                [
                    3.15324,
                    -0.03423,
                    0.00639
                ],
                [
                    0.00964,
                    2.91054,
                    0.19656
                ],
                [
                    0.07379,
                    0.18084,
                    3.56601
                ]
            ],
            [
                [
                    2.64024,
                    -0.10517,
                    -0.23589
                ],
                [
                    -0.08078,
                    2.42487,
                    0.0738
                ],
                [
                    -0.13311,
                    0.06187,
                    2.44708
                ]
            ],
            [
                [
                    2.55942,
                    0.12744,
                    0.18193
                ],
                [
                    0.15176,
                    2.5057,
                    0.16746
                ],
                [
                    0.12014,
                    0.08434,
                    2.44708
                ]
            ],
            [
                [
                    2.39837,
                    -0.05885,
                    0.05404
                ],
                [
                    -0.03449,
                    2.66673,
                    -0.24126
                ],
                [
                    0.01298,
                    -0.14621,
                    2.44708
                ]
            ],
            [
                [
                    -1.96521,
                    -0.78782,
                    -0.11021
                ],
                [
                    -0.78106,
                    -1.95389,
                    -0.14514
                ],
                [
                    -0.11119,
                    -0.14658,
                    -2.19209
                ]
            ],
            [
                [
                    -1.27743,
                    0.38415,
                    -0.07065
                ],
                [
                    0.39065,
                    -2.64171,
                    0.16805
                ],
                [
                    -0.07134,
                    0.16958,
                    -2.19209
                ]
            ],
            [
                [
                    -2.63626,
                    0.39381,
                    0.1809
                ],
                [
                    0.40046,
                    -1.28302,
                    -0.02275
                ],
                [
                    0.18253,
                    -0.02301,
                    -2.19209
                ]
            ],
            [
                [
                    -2.65451,
                    -0.41428,
                    -0.17951
                ],
                [
                    -0.40442,
                    -1.30591,
                    -0.02664
                ],
                [
                    -0.15132,
                    -0.00204,
                    -2.20934
                ]
            ],
            [
                [
                    -1.28855,
                    -0.38412,
                    0.06658
                ],
                [
                    -0.37419,
                    -2.67161,
                    0.16891
                ],
                [
                    0.07389,
                    0.13207,
                    -2.20934
                ]
            ],
            [
                [
                    -1.99771,
                    0.78376,
                    0.11283
                ],
                [
                    0.79336,
                    -1.96249,
                    -0.14227
                ],
                [
                    0.07743,
                    -0.13002,
                    -2.20934
                ]
            ],
            [
                [
                    -2.48663,
                    -0.20853,
                    0.1385
                ],
                [
                    -0.27112,
                    -1.71803,
                    0.16553
                ],
                [
                    0.14313,
                    0.13795,
                    -1.70591
                ]
            ],
            [
                [
                    -1.70249,
                    -0.18156,
                    0.07407
                ],
                [
                    -0.24436,
                    -2.50207,
                    -0.20282
                ],
                [
                    0.0479,
                    -0.19293,
                    -1.70591
                ]
            ],
            [
                [
                    -2.11789,
                    0.4841,
                    -0.21262
                ],
                [
                    0.42144,
                    -2.08679,
                    0.03725
                ],
                [
                    -0.19103,
                    0.05498,
                    -1.70591
                ]
            ],
            [
                [
                    -2.15087,
                    -0.27725,
                    0.37397
                ],
                [
                    -0.2305,
                    -2.02662,
                    0.18873
                ],
                [
                    0.31317,
                    0.25375,
                    -1.70911
                ]
            ],
            [
                [
                    -1.83771,
                    0.04973,
                    -0.02354
                ],
                [
                    0.09646,
                    -2.3397,
                    -0.4182
                ],
                [
                    0.06317,
                    -0.39808,
                    -1.70911
                ]
            ],
            [
                [
                    -2.2775,
                    0.15746,
                    -0.35039
                ],
                [
                    0.20414,
                    -1.89993,
                    0.22952
                ],
                [
                    -0.37633,
                    0.14434,
                    -1.70911
                ]
            ],
            [
                [
                    -1.46025,
                    0.45083,
                    0.42624
                ],
                [
                    0.4133,
                    -1.92526,
                    -0.20827
                ],
                [
                    0.46356,
                    -0.22037,
                    -2.20368
                ]
            ],
            [
                [
                    -2.18308,
                    0.004,
                    -0.39341
                ],
                [
                    -0.03328,
                    -1.20223,
                    -0.26496
                ],
                [
                    -0.42263,
                    -0.29127,
                    -2.20368
                ]
            ],
            [
                [
                    -1.43468,
                    -0.3986,
                    -0.03287
                ],
                [
                    -0.43592,
                    -1.95062,
                    0.47323
                ],
                [
                    -0.04094,
                    0.51164,
                    -2.20368
                ]
            ]
        ]
    },
    "band_gap": 4.826200000000001,
    "is_direct": false,
    "formula": "LaSiBO5"
}