{
    "mp_id": "mp-1020633",
    "nelements": 4,
    "nsites": 24,
    "elements": [
        "B",
        "Mg",
        "O",
        "Rb"
    ],
    "structure": {
        "@module": "pymatgen.core.structure",
        "@class": "Structure",
        "charge": null,
        "lattice": {
            "matrix": [
                [
                    6.92577513,
                    0.0,
                    0.0
                ],
                [
                    0.0,
                    6.92577513,
                    0.0
                ],
                [
                    0.0,
                    0.0,
                    6.92577513
                ]
            ],
            "a": 6.92577513,
            "b": 6.92577513,
            "c": 6.92577513,
            "alpha": 90.0,
            "beta": 90.0,
            "gamma": 90.0,
            "volume": 332.2042311384553
        },
        "sites": [
            {
                "species": [
                    {
                        "element": "Rb",
                        "occu": 1
                    }
                ],
                "abc": [
                    0.60861219,
                    0.39138781,
                    0.89138781
                ],
                "xyz": [
                    4.215111169316835,
                    2.7106639606831653,
                    6.173551525683165
                ],
                "label": "Rb",
                "properties": {}
            },
            {
                "species": [
                    {
                        "element": "Rb",
                        "occu": 1
                    }
                ],
                "abc": [
                    0.10861219,
                    0.10861219,
                    0.10861219
                ],
                "xyz": [
                    0.7522236043168347,
                    0.7522236043168347,
                    0.7522236043168347
                ],
                "label": "Rb",
                "properties": {}
            },
            {
                "species": [
                    {
                        "element": "Rb",
                        "occu": 1
                    }
                ],
                "abc": [
                    0.89138781,
                    0.60861219,
                    0.39138781
                ],
                "xyz": [
                    6.173551525683165,
                    4.215111169316835,
                    2.7106639606831653
                ],
                "label": "Rb",
                "properties": {}
            },
            {
                "species": [
                    {
                        "element": "Rb",
                        "occu": 1
                    }
                ],
                "abc": [
                    0.39138781,
                    0.89138781,
                    0.60861219
                ],
                "xyz": [
                    2.7106639606831653,
                    6.173551525683165,
                    4.215111169316835
                ],
                "label": "Rb",
                "properties": {}
            },
            {
                "species": [
                    {
                        "element": "Mg",
                        "occu": 1
                    }
                ],
                "abc": [
                    0.10958856,
                    0.60958856,
                    0.89041144
                ],
                "xyz": [
                    0.7589857233805128,
                    4.221873288380513,
                    6.166789406619487
                ],
                "label": "Mg",
                "properties": {}
            },
            {
                "species": [
                    {
                        "element": "Mg",
                        "occu": 1
                    }
                ],
                "abc": [
                    0.60958856,
                    0.89041144,
                    0.10958856
                ],
                "xyz": [
                    4.221873288380513,
                    6.166789406619487,
                    0.7589857233805128
                ],
                "label": "Mg",
                "properties": {}
            },
            {
                "species": [
                    {
                        "element": "Mg",
                        "occu": 1
                    }
                ],
                "abc": [
                    0.89041144,
                    0.10958856,
                    0.60958856
                ],
                "xyz": [
                    6.166789406619487,
                    0.7589857233805128,
                    4.221873288380513
                ],
                "label": "Mg",
                "properties": {}
            },
            {
                "species": [
                    {
                        "element": "Mg",
                        "occu": 1
                    }
                ],
                "abc": [
                    0.39041144,
                    0.39041144,
                    0.39041144
                ],
                "xyz": [
                    2.703901841619487,
                    2.703901841619487,
                    2.703901841619487
                ],
                "label": "Mg",
                "properties": {}
            },
            {
                "species": [
                    {
                        "element": "B",
                        "occu": 1
                    }
                ],
                "abc": [
                    0.14775252,
                    0.35224748,
                    0.64775252
                ],
                "xyz": [
                    1.0233007284108275,
                    2.4395868365891724,
                    4.4861882934108275
                ],
                "label": "B",
                "properties": {}
            },
            {
                "species": [
                    {
                        "element": "B",
                        "occu": 1
                    }
                ],
                "abc": [
                    0.35224748,
                    0.64775252,
                    0.14775252
                ],
                "xyz": [
                    2.4395868365891724,
                    4.4861882934108275,
                    1.0233007284108275
                ],
                "label": "B",
                "properties": {}
            },
            {
                "species": [
                    {
                        "element": "B",
                        "occu": 1
                    }
                ],
                "abc": [
                    0.85224748,
                    0.85224748,
                    0.85224748
                ],
                "xyz": [
                    5.902474401589172,
                    5.902474401589172,
                    5.902474401589172
                ],
                "label": "B",
                "properties": {}
            },
            {
                "species": [
                    {
                        "element": "B",
                        "occu": 1
                    }
                ],
                "abc": [
                    0.64775252,
                    0.14775252,
                    0.35224748
                ],
                "xyz": [
                    4.4861882934108275,
                    1.0233007284108275,
                    2.4395868365891724
                ],
                "label": "B",
                "properties": {}
            },
            {
                "species": [
                    {
                        "element": "O",
                        "occu": 1
                    }
                ],
                "abc": [
                    0.99991764,
                    0.34558349,
                    0.78138506
                ],
                "xyz": [
                    6.925204723160293,
                    2.3934335403806037,
                    5.411697215501557
                ],
                "label": "O",
                "properties": {}
            },
            {
                "species": [
                    {
                        "element": "O",
                        "occu": 1
                    }
                ],
                "abc": [
                    0.21861494,
                    0.49991764,
                    0.15441651
                ],
                "xyz": [
                    1.5140779144984422,
                    3.462317158160293,
                    1.0694540246193964
                ],
                "label": "O",
                "properties": {}
            },
            {
                "species": [
                    {
                        "element": "O",
                        "occu": 1
                    }
                ],
                "abc": [
                    0.84558349,
                    0.71861494,
                    8.236e-05
                ],
                "xyz": [
                    5.856321105380603,
                    4.976965479498443,
                    0.0005704068397068
                ],
                "label": "O",
                "properties": {}
            },
            {
                "species": [
                    {
                        "element": "O",
                        "occu": 1
                    }
                ],
                "abc": [
                    0.49991764,
                    0.15441651,
                    0.21861494
                ],
                "xyz": [
                    3.462317158160293,
                    1.0694540246193964,
                    1.5140779144984422
                ],
                "label": "O",
                "properties": {}
            },
            {
                "species": [
                    {
                        "element": "O",
                        "occu": 1
                    }
                ],
                "abc": [
                    0.71861494,
                    8.236e-05,
                    0.84558349
                ],
                "xyz": [
                    4.976965479498443,
                    0.0005704068397068,
                    5.856321105380603
                ],
                "label": "O",
                "properties": {}
            },
            {
                "species": [
                    {
                        "element": "O",
                        "occu": 1
                    }
                ],
                "abc": [
                    0.34558349,
                    0.78138506,
                    0.99991764
                ],
                "xyz": [
                    2.3934335403806037,
                    5.411697215501557,
                    6.925204723160293
                ],
                "label": "O",
                "properties": {}
            },
            {
                "species": [
                    {
                        "element": "O",
                        "occu": 1
                    }
                ],
                "abc": [
                    8.236e-05,
                    0.84558349,
                    0.71861494
                ],
                "xyz": [
                    0.0005704068397068,
                    5.856321105380603,
                    4.976965479498443
                ],
                "label": "O",
                "properties": {}
            },
            {
                "species": [
                    {
                        "element": "O",
                        "occu": 1
                    }
                ],
                "abc": [
                    0.78138506,
                    0.99991764,
                    0.34558349
                ],
                "xyz": [
                    5.411697215501557,
                    6.925204723160293,
                    2.3934335403806037
                ],
                "label": "O",
                "properties": {}
            },
            {
                "species": [
                    {
                        "element": "O",
                        "occu": 1
                    }
                ],
                "abc": [
                    0.15441651,
                    0.21861494,
                    0.49991764
                ],
                "xyz": [
                    1.0694540246193964,
                    1.5140779144984422,
                    3.462317158160293
                ],
                "label": "O",
                "properties": {}
            },
            {
                "species": [
                    {
                        "element": "O",
                        "occu": 1
                    }
                ],
                "abc": [
                    0.50008236,
                    0.65441651,
                    0.28138506
                ],
                "xyz": [
                    3.4634579718397065,
                    4.532341589619397,
                    1.948809650501558
                ],
                "label": "O",
                "properties": {}
            },
            {
                "species": [
                    {
                        "element": "O",
                        "occu": 1
                    }
                ],
                "abc": [
                    0.28138506,
                    0.50008236,
                    0.65441651
                ],
                "xyz": [
                    1.948809650501558,
                    3.4634579718397065,
                    4.532341589619397
                ],
                "label": "O",
                "properties": {}
            },
            {
                "species": [
                    {
                        "element": "O",
                        "occu": 1
                    }
                ],
                "abc": [
                    0.65441651,
                    0.28138506,
                    0.50008236
                ],
                "xyz": [
                    4.532341589619397,
                    1.948809650501558,
                    3.4634579718397065
                ],
                "label": "O",
                "properties": {}
            }
        ]
    },
    "spacegroup": {
        "source": "spglib",
        "symbol": "P2_13",
        "number": 198,
        "point_group": "23",
        "crystal_system": "cubic",
        "hall": "P 2ac 2ab 3"
    },
    "dielectric": {
        "epsilon_ionic": [
            [
                3.60939885,
                -5e-08,
                -5e-08
            ],
            [
                -5e-08,
                3.6093989,
                -5e-08
            ],
            [
                -5e-08,
                -5e-08,
                3.60939714
            ]
        ],
        "epsilon_ionic_avg": 3.6093982966666656,
        "epsilon_ionic_eig": [
            3.609397137037234,
            3.6093988219101374,
            3.6093989310526253
        ],
        "epsilon_electronic": [
            [
                2.59127711,
                0.0,
                0.0
            ],
            [
                0.0,
                2.59127711,
                0.0
            ],
            [
                -0.0,
                -0.0,
                2.59127711
            ]
        ],
        "epsilon_electronic_avg": 2.59127711,
        "epsilon_electronic_eig": [
            2.59127711,
            2.59127711,
            2.59127711
        ]
    },
    "phonon": {
        "lowest_freq": -0.030584888231462038,
        "frequency": [
            -0.030584888231462038,
            -0.030584888231462038,
            -0.030584888231462038,
            2.424336776263818,
            2.424336776263818,
            2.5882821505886673,
            2.5882821505886673,
            2.5882821505886673,
            2.8353200804664285,
            2.8353200804664285,
            2.8353200804664285,
            2.9148518049285146,
            3.797729823857895,
            3.797729823857895,
            3.797729823857895,
            4.042289155418165,
            4.169746479148698,
            4.169746479148698,
            5.513008287968271,
            5.513008287968271,
            5.513008287968271,
            6.041570414034757,
            6.041570414034757,
            6.041570414034757,
            6.71388796761077,
            6.76632863048801,
            6.76632863048801,
            6.76632863048801,
            6.943763519842036,
            6.943763519842036,
            7.169358613039686,
            7.169358613039686,
            7.169358613039686,
            7.984714926898704,
            7.984714926898704,
            7.984714926898704,
            8.480374493544502,
            8.480374493544502,
            8.480374493544502,
            9.915004257848926,
            10.608969701744103,
            10.608969701744103,
            10.608969701744103,
            10.62239399307841,
            10.62239399307841,
            11.715937676123806,
            11.715937676123806,
            11.715937676123806,
            17.780594086631922,
            17.780594086631922,
            18.133203792469832,
            18.133203792469832,
            18.133203792469832,
            18.776498597853468,
            18.776498597853468,
            18.776498597853468,
            21.13796482475469,
            21.36315915624986,
            21.36315915624986,
            21.36315915624986,
            27.041907520305394,
            27.041907520305394,
            27.041907520305394,
            27.08186839868673,
            38.66015973959863,
            38.66015973959863,
            38.838759911643486,
            38.838759911643486,
            38.838759911643486,
            39.31671544558876,
            39.31671544558876,
            39.31671544558876
        ]
    },
    "born_effective_charge": {
        "avg_abs_trace": 1.5934369444444443,
        "tensors": [
            [
                [
                    1.26467,
                    -0.10706,
                    -0.05167
                ],
                [
                    -0.0516,
                    1.26468,
                    0.10707
                ],
                [
                    -0.10707,
                    0.0516,
                    1.26467
                ]
            ],
            [
                [
                    1.26467,
                    0.10706,
                    0.05167
                ],
                [
                    0.05167,
                    1.26466,
                    0.10706
                ],
                [
                    0.10706,
                    0.05167,
                    1.26467
                ]
            ],
            [
                [
                    1.26468,
                    -0.10707,
                    0.0516
                ],
                [
                    -0.05167,
                    1.26466,
                    -0.10706
                ],
                [
                    0.10707,
                    -0.0516,
                    1.26467
                ]
            ],
            [
                [
                    1.26468,
                    0.10707,
                    -0.0516
                ],
                [
                    0.0516,
                    1.26468,
                    -0.10707
                ],
                [
                    -0.10706,
                    -0.05167,
                    1.26467
                ]
            ],
            [
                [
                    1.91742,
                    -0.18194,
                    0.22012
                ],
                [
                    -0.22012,
                    1.91742,
                    0.18194
                ],
                [
                    0.18194,
                    0.22012,
                    1.91741
                ]
            ],
            [
                [
                    1.91742,
                    0.18194,
                    -0.22012
                ],
                [
                    0.22012,
                    1.91741,
                    0.18194
                ],
                [
                    -0.18194,
                    0.22012,
                    1.91742
                ]
            ],
            [
                [
                    1.91741,
                    0.18194,
                    0.22012
                ],
                [
                    0.22012,
                    1.91742,
                    -0.18194
                ],
                [
                    0.18194,
                    -0.22012,
                    1.91742
                ]
            ],
            [
                [
                    1.91741,
                    -0.18194,
                    -0.22012
                ],
                [
                    -0.22012,
                    1.91741,
                    -0.18194
                ],
                [
                    -0.18194,
                    -0.22012,
                    1.91741
                ]
            ],
            [
                [
                    1.59825,
                    0.65131,
                    -0.65561
                ],
                [
                    0.65566,
                    1.5982,
                    0.65122
                ],
                [
                    -0.65131,
                    0.65561,
                    1.59825
                ]
            ],
            [
                [
                    1.5982,
                    0.65122,
                    0.65566
                ],
                [
                    0.65561,
                    1.59825,
                    -0.65131
                ],
                [
                    0.65131,
                    -0.65561,
                    1.59825
                ]
            ],
            [
                [
                    1.5982,
                    -0.65122,
                    -0.65566
                ],
                [
                    -0.65566,
                    1.5982,
                    -0.65122
                ],
                [
                    -0.65122,
                    -0.65566,
                    1.5982
                ]
            ],
            [
                [
                    1.59825,
                    -0.65131,
                    0.65561
                ],
                [
                    -0.65561,
                    1.59825,
                    0.65131
                ],
                [
                    0.65122,
                    0.65566,
                    1.5982
                ]
            ],
            [
                [
                    -1.70449,
                    -0.19485,
                    0.42194
                ],
                [
                    -0.22628,
                    -1.43503,
                    -0.16738
                ],
                [
                    0.46603,
                    -0.1127,
                    -1.64074
                ]
            ],
            [
                [
                    -1.64077,
                    -0.46624,
                    -0.11246
                ],
                [
                    -0.42194,
                    -1.70449,
                    0.19485
                ],
                [
                    -0.16711,
                    0.22658,
                    -1.43505
                ]
            ],
            [
                [
                    -1.43503,
                    0.16738,
                    0.22628
                ],
                [
                    0.11246,
                    -1.64077,
                    0.46624
                ],
                [
                    0.19507,
                    0.42182,
                    -1.70454
                ]
            ],
            [
                [
                    -1.70449,
                    0.19485,
                    -0.42194
                ],
                [
                    0.22658,
                    -1.43505,
                    -0.16711
                ],
                [
                    -0.46624,
                    -0.11246,
                    -1.64077
                ]
            ],
            [
                [
                    -1.64077,
                    0.46624,
                    0.11246
                ],
                [
                    0.42182,
                    -1.70454,
                    0.19506
                ],
                [
                    0.16738,
                    0.22628,
                    -1.43503
                ]
            ],
            [
                [
                    -1.43503,
                    -0.16738,
                    -0.22628
                ],
                [
                    -0.1127,
                    -1.64074,
                    0.46603
                ],
                [
                    -0.19485,
                    0.42194,
                    -1.70449
                ]
            ],
            [
                [
                    -1.70454,
                    0.19506,
                    0.42182
                ],
                [
                    0.22628,
                    -1.43503,
                    0.16738
                ],
                [
                    0.46624,
                    0.11246,
                    -1.64077
                ]
            ],
            [
                [
                    -1.64074,
                    0.46603,
                    -0.1127
                ],
                [
                    0.42194,
                    -1.70449,
                    -0.19485
                ],
                [
                    -0.16738,
                    -0.22628,
                    -1.43503
                ]
            ],
            [
                [
                    -1.43505,
                    -0.16711,
                    0.22658
                ],
                [
                    -0.11246,
                    -1.64077,
                    -0.46624
                ],
                [
                    0.19485,
                    -0.42194,
                    -1.70449
                ]
            ],
            [
                [
                    -1.70454,
                    -0.19506,
                    -0.42182
                ],
                [
                    -0.22658,
                    -1.43505,
                    0.16711
                ],
                [
                    -0.46603,
                    0.1127,
                    -1.64074
                ]
            ],
            [
                [
                    -1.64074,
                    -0.46603,
                    0.1127
                ],
                [
                    -0.42182,
                    -1.70454,
                    -0.19506
                ],
                [
                    0.16711,
                    -0.22658,
                    -1.43505
                ]
            ],
            [
                [
                    -1.43505,
                    0.16711,
                    -0.22658
                ],
                [
                    0.1127,
                    -1.64074,
                    -0.46603
                ],
                [
                    -0.19507,
                    -0.42182,
                    -1.70454
                ]
            ]
        ]
    },
    "band_gap": 4.472799999999999,
    "is_direct": false,
    "formula": "RbMgBO3"
}