{
    "mp_id": "mp-1205823",
    "nelements": 4,
    "nsites": 10,
    "elements": [
        "Ba",
        "O",
        "Sc",
        "Ta"
    ],
    "structure": {
        "@module": "pymatgen.core.structure",
        "@class": "Structure",
        "charge": null,
        "lattice": {
            "matrix": [
                [
                    0.0,
                    4.109385,
                    4.109385
                ],
                [
                    4.109385,
                    0.0,
                    4.109385
                ],
                [
                    4.109385,
                    4.109385,
                    0.0
                ]
            ],
            "a": 5.811548000012561,
            "b": 5.811548000012561,
            "c": 5.811548000012561,
            "alpha": 60.00000000000001,
            "beta": 60.00000000000001,
            "gamma": 60.00000000000001,
            "volume": 138.79073947756325
        },
        "sites": [
            {
                "species": [
                    {
                        "element": "Ba",
                        "occu": 1
                    }
                ],
                "abc": [
                    0.25,
                    0.25,
                    0.25
                ],
                "xyz": [
                    2.0546925,
                    2.0546925,
                    2.0546925
                ],
                "label": "Ba",
                "properties": {}
            },
            {
                "species": [
                    {
                        "element": "Ba",
                        "occu": 1
                    }
                ],
                "abc": [
                    0.75,
                    0.75,
                    0.75
                ],
                "xyz": [
                    6.164077499999999,
                    6.164077499999999,
                    6.164077499999999
                ],
                "label": "Ba",
                "properties": {}
            },
            {
                "species": [
                    {
                        "element": "Sc",
                        "occu": 1
                    }
                ],
                "abc": [
                    0.5,
                    0.5,
                    0.5
                ],
                "xyz": [
                    4.109385,
                    4.109385,
                    4.109385
                ],
                "label": "Sc",
                "properties": {}
            },
            {
                "species": [
                    {
                        "element": "Ta",
                        "occu": 1
                    }
                ],
                "abc": [
                    0.0,
                    0.0,
                    0.0
                ],
                "xyz": [
                    0.0,
                    0.0,
                    0.0
                ],
                "label": "Ta",
                "properties": {}
            },
            {
                "species": [
                    {
                        "element": "O",
                        "occu": 1
                    }
                ],
                "abc": [
                    0.755854,
                    0.244146,
                    0.244146
                ],
                "xyz": [
                    2.00657982042,
                    4.109385,
                    4.109385
                ],
                "label": "O",
                "properties": {}
            },
            {
                "species": [
                    {
                        "element": "O",
                        "occu": 1
                    }
                ],
                "abc": [
                    0.244146,
                    0.755854,
                    0.755854
                ],
                "xyz": [
                    6.212190179579999,
                    4.109385,
                    4.109385
                ],
                "label": "O",
                "properties": {}
            },
            {
                "species": [
                    {
                        "element": "O",
                        "occu": 1
                    }
                ],
                "abc": [
                    0.244146,
                    0.755854,
                    0.244146
                ],
                "xyz": [
                    4.109385,
                    2.00657982042,
                    4.109385
                ],
                "label": "O",
                "properties": {}
            },
            {
                "species": [
                    {
                        "element": "O",
                        "occu": 1
                    }
                ],
                "abc": [
                    0.755854,
                    0.244146,
                    0.755854
                ],
                "xyz": [
                    4.109385,
                    6.212190179579999,
                    4.109385
                ],
                "label": "O",
                "properties": {}
            },
            {
                "species": [
                    {
                        "element": "O",
                        "occu": 1
                    }
                ],
                "abc": [
                    0.244146,
                    0.244146,
                    0.755854
                ],
                "xyz": [
                    4.109385,
                    4.109385,
                    2.00657982042
                ],
                "label": "O",
                "properties": {}
            },
            {
                "species": [
                    {
                        "element": "O",
                        "occu": 1
                    }
                ],
                "abc": [
                    0.755854,
                    0.755854,
                    0.244146
                ],
                "xyz": [
                    4.109385,
                    4.109385,
                    6.212190179579999
                ],
                "label": "O",
                "properties": {}
            }
        ]
    },
    "spacegroup": {
        "source": "spglib",
        "symbol": "Fm-3m",
        "number": 225,
        "point_group": "m-3m",
        "crystal_system": "cubic",
        "hall": "-F 4 2 3"
    },
    "dielectric": {
        "epsilon_ionic": [
            [
                27.54771132,
                0.0,
                -0.0
            ],
            [
                0.0,
                27.54635993,
                0.0
            ],
            [
                -0.0,
                0.0,
                27.54342299
            ]
        ],
        "epsilon_ionic_avg": 27.54583141333333,
        "epsilon_ionic_eig": [
            27.54771132,
            27.54635993,
            27.54342299
        ],
        "epsilon_electronic": [
            [
                4.92588962,
                0.0,
                0.0
            ],
            [
                0.0,
                4.92588962,
                -0.0
            ],
            [
                0.0,
                0.0,
                4.92588962
            ]
        ],
        "epsilon_electronic_avg": 4.92588962,
        "epsilon_electronic_eig": [
            4.92588962,
            4.92588962,
            4.92588962
        ]
    },
    "phonon": {
        "lowest_freq": -0.02204191047059421,
        "frequency": [
            -0.02204191047059421,
            -0.02204191047059421,
            -0.02204191047059421,
            2.7408363829433164,
            2.7408363829433164,
            2.7408363829433164,
            3.419716400486165,
            3.419716400486165,
            3.419716400486165,
            3.7662432720033134,
            3.7662432720033134,
            3.7662432720033134,
            7.1281282259071865,
            7.1281282259071865,
            7.1281282259071865,
            7.141711374033826,
            7.141711374033826,
            7.141711374033826,
            9.736395195663873,
            9.736395195663873,
            9.736395195663873,
            11.629909964347533,
            11.629909964347533,
            11.629909964347533,
            16.060358443991102,
            16.060358443991102,
            16.060358443991102,
            16.166772061410324,
            16.166772061410324,
            23.885480117346187
        ]
    },
    "born_effective_charge": {
        "avg_abs_trace": 3.456273666666667,
        "tensors": [
            [
                [
                    2.72853,
                    0.0,
                    0.0
                ],
                [
                    0.0,
                    2.72848,
                    -0.0
                ],
                [
                    -0.0,
                    0.0,
                    2.7283
                ]
            ],
            [
                [
                    2.72853,
                    0.0,
                    0.0
                ],
                [
                    0.0,
                    2.72848,
                    -0.0
                ],
                [
                    0.0,
                    0.0,
                    2.7283
                ]
            ],
            [
                [
                    5.04381,
                    0.0,
                    0.0
                ],
                [
                    0.0,
                    5.04392,
                    -0.0
                ],
                [
                    -0.0,
                    0.0,
                    5.04297
                ]
            ],
            [
                [
                    6.78108,
                    0.0,
                    0.0
                ],
                [
                    0.0,
                    6.78046,
                    -0.0
                ],
                [
                    -0.0,
                    0.0,
                    6.78125
                ]
            ],
            [
                [
                    -4.66105,
                    0.0,
                    0.0
                ],
                [
                    1e-05,
                    -1.98995,
                    -0.0
                ],
                [
                    0.00015,
                    0.0,
                    -1.98984
                ]
            ],
            [
                [
                    -4.66098,
                    0.0,
                    0.0
                ],
                [
                    -1e-05,
                    -1.98995,
                    -0.0
                ],
                [
                    -0.00015,
                    0.0,
                    -1.98984
                ]
            ],
            [
                [
                    -1.98998,
                    7e-05,
                    0.0
                ],
                [
                    0.0,
                    -4.66069,
                    -0.0
                ],
                [
                    -0.0,
                    0.00015,
                    -1.98984
                ]
            ],
            [
                [
                    -1.98998,
                    -7e-05,
                    0.0
                ],
                [
                    0.0,
                    -4.66084,
                    -0.0
                ],
                [
                    0.0,
                    -0.00015,
                    -1.98984
                ]
            ],
            [
                [
                    -1.98998,
                    0.0,
                    7e-05
                ],
                [
                    0.0,
                    -1.98995,
                    1e-05
                ],
                [
                    -0.0,
                    0.0,
                    -4.66092
                ]
            ],
            [
                [
                    -1.98998,
                    0.0,
                    -7e-05
                ],
                [
                    0.0,
                    -1.98995,
                    -1e-05
                ],
                [
                    -0.0,
                    0.0,
                    -4.66054
                ]
            ]
        ]
    },
    "band_gap": 3.146,
    "is_direct": false,
    "formula": "Ba2ScTaO6"
}