{
    "mp_id": "mp-1212067",
    "nelements": 3,
    "nsites": 24,
    "elements": [
        "In",
        "O",
        "Sb"
    ],
    "structure": {
        "@module": "pymatgen.core.structure",
        "@class": "Structure",
        "charge": null,
        "lattice": {
            "matrix": [
                [
                    7.5330688,
                    0.0,
                    0.00077352
                ],
                [
                    0.0,
                    5.27596544,
                    0.0
                ],
                [
                    -1.36385371,
                    0.0,
                    7.34472493
                ]
            ],
            "a": 7.533068839713774,
            "b": 5.27596544,
            "c": 7.470279863542213,
            "alpha": 90.0,
            "beta": 100.51364442706075,
            "gamma": 90.0,
            "volume": 291.9158607297743
        },
        "sites": [
            {
                "species": [
                    {
                        "element": "In",
                        "occu": 1
                    }
                ],
                "abc": [
                    0.15840901,
                    0.73942068,
                    0.36204904
                ],
                "xyz": [
                    0.6995240444639494,
                    3.9011579533012997,
                    2.6592731425079825
                ],
                "label": "In",
                "properties": {}
            },
            {
                "species": [
                    {
                        "element": "In",
                        "occu": 1
                    }
                ],
                "abc": [
                    0.84159099,
                    0.26057932,
                    0.63795096
                ],
                "xyz": [
                    5.46969104553605,
                    1.3748074866987008,
                    4.686225307492017
                ],
                "label": "In",
                "properties": {}
            },
            {
                "species": [
                    {
                        "element": "In",
                        "occu": 1
                    }
                ],
                "abc": [
                    0.84159099,
                    0.23942068,
                    0.13795096
                ],
                "xyz": [
                    6.15161790053605,
                    1.2631752333012993,
                    1.0138628424920177
                ],
                "label": "In",
                "properties": {}
            },
            {
                "species": [
                    {
                        "element": "In",
                        "occu": 1
                    }
                ],
                "abc": [
                    0.15840901,
                    0.76057932,
                    0.86204904
                ],
                "xyz": [
                    0.01759718946394928,
                    4.012790206698701,
                    6.331635607507983
                ],
                "label": "In",
                "properties": {}
            },
            {
                "species": [
                    {
                        "element": "Sb",
                        "occu": 1
                    }
                ],
                "abc": [
                    0.33198083,
                    0.24460234,
                    0.18593426
                ],
                "xyz": [
                    2.2472473023539994,
                    1.2905134923831296,
                    1.3658927885747234
                ],
                "label": "Sb",
                "properties": {}
            },
            {
                "species": [
                    {
                        "element": "Sb",
                        "occu": 1
                    }
                ],
                "abc": [
                    0.66801917,
                    0.75539766,
                    0.81406574
                ],
                "xyz": [
                    3.9219677876460004,
                    3.9854519476168706,
                    5.979605661425276
                ],
                "label": "Sb",
                "properties": {}
            },
            {
                "species": [
                    {
                        "element": "Sb",
                        "occu": 1
                    }
                ],
                "abc": [
                    0.66801917,
                    0.74460234,
                    0.31406574
                ],
                "xyz": [
                    4.603894642646001,
                    3.9284962123831297,
                    2.3072431964252766
                ],
                "label": "Sb",
                "properties": {}
            },
            {
                "species": [
                    {
                        "element": "Sb",
                        "occu": 1
                    }
                ],
                "abc": [
                    0.33198083,
                    0.25539766,
                    0.68593426
                ],
                "xyz": [
                    1.5653204473539994,
                    1.3474692276168705,
                    5.038255253574724
                ],
                "label": "Sb",
                "properties": {}
            },
            {
                "species": [
                    {
                        "element": "O",
                        "occu": 1
                    }
                ],
                "abc": [
                    0.18890262,
                    0.54789124,
                    0.10605681
                ],
                "xyz": [
                    1.2783704591709908,
                    2.8906552471187457,
                    0.7791042163578957
                ],
                "label": "O",
                "properties": {}
            },
            {
                "species": [
                    {
                        "element": "O",
                        "occu": 1
                    }
                ],
                "abc": [
                    0.81109738,
                    0.45210876,
                    0.89394319
                ],
                "xyz": [
                    4.890844630829009,
                    2.3853101928812546,
                    6.566394233642105
                ],
                "label": "O",
                "properties": {}
            },
            {
                "species": [
                    {
                        "element": "O",
                        "occu": 1
                    }
                ],
                "abc": [
                    0.81109738,
                    0.04789124,
                    0.39394319
                ],
                "xyz": [
                    5.572771485829009,
                    0.2526725271187456,
                    2.894031768642104
                ],
                "label": "O",
                "properties": {}
            },
            {
                "species": [
                    {
                        "element": "O",
                        "occu": 1
                    }
                ],
                "abc": [
                    0.18890262,
                    0.95210876,
                    0.60605681
                ],
                "xyz": [
                    0.5964436041709907,
                    5.023292912881255,
                    4.451466681357895
                ],
                "label": "O",
                "properties": {}
            },
            {
                "species": [
                    {
                        "element": "O",
                        "occu": 1
                    }
                ],
                "abc": [
                    0.10165877,
                    0.06047563,
                    0.18119379
                ],
                "xyz": [
                    0.518680685812915,
                    0.31906733384222724,
                    1.330897181665955
                ],
                "label": "O",
                "properties": {}
            },
            {
                "species": [
                    {
                        "element": "O",
                        "occu": 1
                    }
                ],
                "abc": [
                    0.89834123,
                    0.93952437,
                    0.81880621
                ],
                "xyz": [
                    5.650534404187084,
                    4.956898106157773,
                    6.014601268334045
                ],
                "label": "O",
                "properties": {}
            },
            {
                "species": [
                    {
                        "element": "O",
                        "occu": 1
                    }
                ],
                "abc": [
                    0.89834123,
                    0.56047563,
                    0.31880621
                ],
                "xyz": [
                    6.332461259187085,
                    2.9570500538422273,
                    2.3422388033340447
                ],
                "label": "O",
                "properties": {}
            },
            {
                "species": [
                    {
                        "element": "O",
                        "occu": 1
                    }
                ],
                "abc": [
                    0.10165877,
                    0.43952437,
                    0.68119379
                ],
                "xyz": [
                    -0.163246169187085,
                    2.318915386157773,
                    5.003259646665955
                ],
                "label": "O",
                "properties": {}
            },
            {
                "species": [
                    {
                        "element": "O",
                        "occu": 1
                    }
                ],
                "abc": [
                    0.32544196,
                    0.39523549,
                    0.43605203
                ],
                "xyz": [
                    1.8568654962183162,
                    2.0852487859014657,
                    3.202933951383007
                ],
                "label": "O",
                "properties": {}
            },
            {
                "species": [
                    {
                        "element": "O",
                        "occu": 1
                    }
                ],
                "abc": [
                    0.67455804,
                    0.60476451,
                    0.56394797
                ],
                "xyz": [
                    4.312349593781683,
                    3.1907166540985346,
                    4.142564498616992
                ],
                "label": "O",
                "properties": {}
            },
            {
                "species": [
                    {
                        "element": "O",
                        "occu": 1
                    }
                ],
                "abc": [
                    0.67455804,
                    0.89523549,
                    0.06394797
                ],
                "xyz": [
                    4.994276448781683,
                    4.723231505901466,
                    0.4702020336169929
                ],
                "label": "O",
                "properties": {}
            },
            {
                "species": [
                    {
                        "element": "O",
                        "occu": 1
                    }
                ],
                "abc": [
                    0.32544196,
                    0.10476451,
                    0.93605203
                ],
                "xyz": [
                    1.174938641218316,
                    0.5527339340985344,
                    6.875296416383008
                ],
                "label": "O",
                "properties": {}
            },
            {
                "species": [
                    {
                        "element": "O",
                        "occu": 1
                    }
                ],
                "abc": [
                    0.56830042,
                    0.4185725,
                    0.1917766
                ],
                "xyz": [
                    4.01949093552771,
                    2.2083740441344,
                    1.4089859667515163
                ],
                "label": "O",
                "properties": {}
            },
            {
                "species": [
                    {
                        "element": "O",
                        "occu": 1
                    }
                ],
                "abc": [
                    0.43169958,
                    0.5814275,
                    0.8082234
                ],
                "xyz": [
                    2.14972415447229,
                    3.0675913958656,
                    5.9365124832484835
                ],
                "label": "O",
                "properties": {}
            },
            {
                "species": [
                    {
                        "element": "O",
                        "occu": 1
                    }
                ],
                "abc": [
                    0.43169958,
                    0.9185725,
                    0.3082234
                ],
                "xyz": [
                    2.83165100947229,
                    4.8463567641344,
                    2.2641500182484835
                ],
                "label": "O",
                "properties": {}
            },
            {
                "species": [
                    {
                        "element": "O",
                        "occu": 1
                    }
                ],
                "abc": [
                    0.56830042,
                    0.0814275,
                    0.6917766
                ],
                "xyz": [
                    3.3375640805277103,
                    0.42960867586560003,
                    5.0813484317515165
                ],
                "label": "O",
                "properties": {}
            }
        ]
    },
    "spacegroup": {
        "source": "spglib",
        "symbol": "P2_1/c",
        "number": 14,
        "point_group": "2/m",
        "crystal_system": "monoclinic",
        "hall": "-P 2ybc"
    },
    "dielectric": {
        "epsilon_ionic": [
            [
                8.95255447,
                1e-08,
                0.89920444
            ],
            [
                1e-08,
                9.01245134,
                2e-08
            ],
            [
                0.89920444,
                2e-08,
                8.45151043
            ]
        ],
        "epsilon_ionic_avg": 8.80550541333333,
        "epsilon_ionic_eig": [
            7.768581911717121,
            9.635482988282877,
            9.012451339999997
        ],
        "epsilon_electronic": [
            [
                4.69235443,
                0.0,
                0.02250019
            ],
            [
                0.0,
                4.76552237,
                0.0
            ],
            [
                0.02249979,
                0.0,
                4.76671117
            ]
        ],
        "epsilon_electronic_avg": 4.741529323333332,
        "epsilon_electronic_eig": [
            4.686076146357353,
            4.772989453642647,
            4.76552237
        ]
    },
    "phonon": {
        "lowest_freq": -0.033420627670288326,
        "frequency": [
            -0.033420627670288326,
            -0.01945790013955427,
            -0.015241514024876978,
            2.292436578768367,
            2.394501022842275,
            3.3899705357524654,
            3.4464480905321504,
            3.456049702856043,
            3.7003140993057952,
            3.8115535203514477,
            4.0383965727967945,
            4.377389253475609,
            4.651302159764497,
            4.747198793651339,
            5.162999299190589,
            5.359970894960708,
            5.378390552162309,
            5.52357491270984,
            5.658043332605936,
            5.921644754411521,
            6.122503615705826,
            6.229162737828927,
            6.605010891697511,
            6.771088878992386,
            6.816182545551894,
            7.320892652041349,
            7.542913937842042,
            7.673320169803978,
            8.05500728288449,
            8.478213663753408,
            8.572467531886577,
            8.637292581009548,
            8.802959978077743,
            8.854147231103404,
            8.910283948579197,
            9.547285792640976,
            9.606658583810093,
            10.451409362863908,
            10.835693604685185,
            11.227531225780117,
            11.924868594817445,
            12.398106510775108,
            12.630139161219363,
            13.150241738005965,
            13.748237845760734,
            13.767542235229962,
            14.356315352757182,
            14.513049304724799,
            14.681758590794429,
            14.691279857628277,
            15.223004303070296,
            15.568072182758137,
            16.014052245162816,
            16.16456317761771,
            16.25272053485057,
            17.390494420219426,
            17.464982186301118,
            18.250991074124418,
            18.48100302643251,
            18.562811965233887,
            18.86920343193812,
            19.147979983041868,
            19.481121497057035,
            19.80837121565145,
            20.668520981798196,
            20.81368352764854,
            20.925610901507643,
            21.588027241249332,
            21.75644800730277,
            21.849227205235305,
            22.480652780331486,
            22.72435704423554
        ]
    },
    "born_effective_charge": {
        "avg_abs_trace": 2.834762222222222,
        "tensors": [
            [
                [
                    3.67637,
                    0.23176,
                    -0.11804
                ],
                [
                    -0.028,
                    3.76462,
                    0.0451
                ],
                [
                    -0.09378,
                    0.06425,
                    3.51127
                ]
            ],
            [
                [
                    3.67642,
                    0.23178,
                    -0.11803
                ],
                [
                    -0.02812,
                    3.76473,
                    0.04504
                ],
                [
                    -0.09394,
                    0.06431,
                    3.51115
                ]
            ],
            [
                [
                    3.67642,
                    -0.23178,
                    -0.11803
                ],
                [
                    0.028,
                    3.76462,
                    -0.0451
                ],
                [
                    -0.09394,
                    -0.06431,
                    3.51115
                ]
            ],
            [
                [
                    3.67637,
                    -0.23176,
                    -0.11804
                ],
                [
                    0.02812,
                    3.76473,
                    -0.04504
                ],
                [
                    -0.09378,
                    -0.06425,
                    3.51127
                ]
            ],
            [
                [
                    4.60137,
                    -0.15225,
                    -0.01324
                ],
                [
                    0.21344,
                    4.93219,
                    -0.15466
                ],
                [
                    -0.02397,
                    0.40074,
                    5.02683
                ]
            ],
            [
                [
                    4.60152,
                    -0.15222,
                    -0.01323
                ],
                [
                    0.21322,
                    4.93239,
                    -0.15477
                ],
                [
                    -0.0242,
                    0.40071,
                    5.02687
                ]
            ],
            [
                [
                    4.60152,
                    0.15222,
                    -0.01323
                ],
                [
                    -0.21344,
                    4.93219,
                    0.15466
                ],
                [
                    -0.0242,
                    -0.40071,
                    5.02687
                ]
            ],
            [
                [
                    4.60137,
                    0.15225,
                    -0.01324
                ],
                [
                    -0.21322,
                    4.93239,
                    0.15477
                ],
                [
                    -0.02397,
                    -0.40074,
                    5.02683
                ]
            ],
            [
                [
                    -1.61308,
                    0.36912,
                    0.09705
                ],
                [
                    0.40659,
                    -2.28316,
                    0.31253
                ],
                [
                    -0.01675,
                    0.45488,
                    -2.35245
                ]
            ],
            [
                [
                    -1.61298,
                    0.36904,
                    0.09702
                ],
                [
                    0.40687,
                    -2.28315,
                    0.31211
                ],
                [
                    -0.01685,
                    0.455,
                    -2.35254
                ]
            ],
            [
                [
                    -1.61298,
                    -0.36904,
                    0.09702
                ],
                [
                    -0.40659,
                    -2.28316,
                    -0.31253
                ],
                [
                    -0.01685,
                    -0.455,
                    -2.35254
                ]
            ],
            [
                [
                    -1.61308,
                    -0.36912,
                    0.09705
                ],
                [
                    -0.40687,
                    -2.28315,
                    -0.31211
                ],
                [
                    -0.01675,
                    -0.45488,
                    -2.35245
                ]
            ],
            [
                [
                    -2.69768,
                    -0.02034,
                    -0.16186
                ],
                [
                    -0.08253,
                    -2.09772,
                    0.27867
                ],
                [
                    -0.05773,
                    0.25451,
                    -1.62151
                ]
            ],
            [
                [
                    -2.69772,
                    -0.02035,
                    -0.16185
                ],
                [
                    -0.08302,
                    -2.0976,
                    0.27907
                ],
                [
                    -0.05779,
                    0.25463,
                    -1.62148
                ]
            ],
            [
                [
                    -2.69772,
                    0.02035,
                    -0.16185
                ],
                [
                    0.08253,
                    -2.09772,
                    -0.27867
                ],
                [
                    -0.05779,
                    -0.25463,
                    -1.62148
                ]
            ],
            [
                [
                    -2.69768,
                    0.02034,
                    -0.16186
                ],
                [
                    0.08302,
                    -2.0976,
                    -0.27907
                ],
                [
                    -0.05773,
                    -0.25451,
                    -1.62151
                ]
            ],
            [
                [
                    -1.41982,
                    0.26891,
                    0.29338
                ],
                [
                    0.2482,
                    -1.98359,
                    0.179
                ],
                [
                    0.2379,
                    0.15877,
                    -3.11741
                ]
            ],
            [
                [
                    -1.42001,
                    0.26878,
                    0.29355
                ],
                [
                    0.24818,
                    -1.98372,
                    0.17919
                ],
                [
                    0.23821,
                    0.15873,
                    -3.11725
                ]
            ],
            [
                [
                    -1.42001,
                    -0.26878,
                    0.29355
                ],
                [
                    -0.2482,
                    -1.98359,
                    -0.179
                ],
                [
                    0.23821,
                    -0.15873,
                    -3.11725
                ]
            ],
            [
                [
                    -1.41982,
                    -0.26891,
                    0.29338
                ],
                [
                    -0.24818,
                    -1.98372,
                    -0.17919
                ],
                [
                    0.2379,
                    -0.15877,
                    -3.11741
                ]
            ],
            [
                [
                    -2.54722,
                    -0.67615,
                    -0.09734
                ],
                [
                    -0.51674,
                    -2.33245,
                    -0.42963
                ],
                [
                    -0.04546,
                    -0.42941,
                    -1.44683
                ]
            ],
            [
                [
                    -2.54717,
                    -0.67614,
                    -0.09742
                ],
                [
                    -0.51686,
                    -2.33254,
                    -0.42983
                ],
                [
                    -0.04565,
                    -0.42951,
                    -1.44663
                ]
            ],
            [
                [
                    -2.54717,
                    0.67614,
                    -0.09742
                ],
                [
                    0.51674,
                    -2.33245,
                    0.42963
                ],
                [
                    -0.04565,
                    0.42951,
                    -1.44663
                ]
            ],
            [
                [
                    -2.54722,
                    0.67615,
                    -0.09734
                ],
                [
                    0.51686,
                    -2.33254,
                    0.42983
                ],
                [
                    -0.04546,
                    0.42941,
                    -1.44683
                ]
            ]
        ]
    },
    "band_gap": 1.0144000000000002,
    "is_direct": true,
    "formula": "InSbO4"
}