{
    "mp_id": "mp-1228124",
    "nelements": 4,
    "nsites": 30,
    "elements": [
        "Ba",
        "O",
        "Pt",
        "Ti"
    ],
    "structure": {
        "@module": "pymatgen.core.structure",
        "@class": "Structure",
        "charge": null,
        "lattice": {
            "matrix": [
                [
                    5.74217517,
                    -0.0,
                    0.0
                ],
                [
                    -2.87108709,
                    4.97286908,
                    0.0
                ],
                [
                    0.0,
                    0.0,
                    14.11638471
                ]
            ],
            "a": 5.74217517,
            "b": 5.742174497974152,
            "c": 14.11638471,
            "alpha": 90.0,
            "beta": 90.0,
            "gamma": 119.99999816820262,
            "volume": 403.09457029576237
        },
        "sites": [
            {
                "species": [
                    {
                        "element": "Ba",
                        "occu": 1
                    }
                ],
                "abc": [
                    0.0,
                    0.0,
                    0.59140992
                ],
                "xyz": [
                    0.0,
                    0.0,
                    8.348569952030324
                ],
                "label": "Ba",
                "properties": {}
            },
            {
                "species": [
                    {
                        "element": "Ba",
                        "occu": 1
                    }
                ],
                "abc": [
                    0.666667,
                    0.333333,
                    0.40524317
                ],
                "xyz": [
                    2.8710906210874203,
                    1.6576213690436399,
                    5.72056848881993
                ],
                "label": "Ba",
                "properties": {}
            },
            {
                "species": [
                    {
                        "element": "Ba",
                        "occu": 1
                    }
                ],
                "abc": [
                    0.666667,
                    0.333333,
                    0.09197442
                ],
                "xyz": [
                    2.8710906210874203,
                    1.6576213690436399,
                    1.2983462961991181
                ],
                "label": "Ba",
                "properties": {}
            },
            {
                "species": [
                    {
                        "element": "Ba",
                        "occu": 1
                    }
                ],
                "abc": [
                    0.0,
                    0.0,
                    0.90086486
                ],
                "xyz": [
                    0.0,
                    0.0,
                    12.71695493548029
                ],
                "label": "Ba",
                "properties": {}
            },
            {
                "species": [
                    {
                        "element": "Ba",
                        "occu": 1
                    }
                ],
                "abc": [
                    0.333333,
                    0.666667,
                    0.74785684
                ],
                "xyz": [
                    -2.541087420038224e-06,
                    3.31524771095636,
                    10.557034861444915
                ],
                "label": "Ba",
                "properties": {}
            },
            {
                "species": [
                    {
                        "element": "Ba",
                        "occu": 1
                    }
                ],
                "abc": [
                    0.333333,
                    0.666667,
                    0.25183264
                ],
                "xyz": [
                    -2.541087420038224e-06,
                    3.31524771095636,
                    3.5549664287749345
                ],
                "label": "Ba",
                "properties": {}
            },
            {
                "species": [
                    {
                        "element": "Ti",
                        "occu": 1
                    }
                ],
                "abc": [
                    0.333333,
                    0.666667,
                    0.49849514
                ],
                "xyz": [
                    -2.541087420038224e-06,
                    3.31524771095636,
                    7.0369491723053095
                ],
                "label": "Ti",
                "properties": {}
            },
            {
                "species": [
                    {
                        "element": "Ti",
                        "occu": 1
                    }
                ],
                "abc": [
                    0.333333,
                    0.666667,
                    0.9981128
                ],
                "xyz": [
                    -2.541087420038224e-06,
                    3.31524771095636,
                    14.089744268775288
                ],
                "label": "Ti",
                "properties": {}
            },
            {
                "species": [
                    {
                        "element": "Ti",
                        "occu": 1
                    }
                ],
                "abc": [
                    0.666667,
                    0.333333,
                    0.65301242
                ],
                "xyz": [
                    2.8710906210874203,
                    1.6576213690436399,
                    9.218174541128098
                ],
                "label": "Ti",
                "properties": {}
            },
            {
                "species": [
                    {
                        "element": "Ti",
                        "occu": 1
                    }
                ],
                "abc": [
                    0.666667,
                    0.333333,
                    0.84385856
                ],
                "xyz": [
                    2.8710906210874203,
                    1.6576213690436399,
                    11.912232073786619
                ],
                "label": "Ti",
                "properties": {}
            },
            {
                "species": [
                    {
                        "element": "Ti",
                        "occu": 1
                    }
                ],
                "abc": [
                    0.0,
                    0.0,
                    0.15132881
                ],
                "xyz": [
                    0.0,
                    0.0,
                    2.1362156996664954
                ],
                "label": "Ti",
                "properties": {}
            },
            {
                "species": [
                    {
                        "element": "Pt",
                        "occu": 1
                    }
                ],
                "abc": [
                    0.0,
                    0.0,
                    0.34191716
                ],
                "xyz": [
                    0.0,
                    0.0,
                    4.826634169510624
                ],
                "label": "Pt",
                "properties": {}
            },
            {
                "species": [
                    {
                        "element": "O",
                        "occu": 1
                    }
                ],
                "abc": [
                    0.49801811,
                    0.99603522,
                    0.58253635
                ],
                "xyz": [
                    3.364125019000852e-06,
                    4.953152748128997,
                    8.223307224159209
                ],
                "label": "O",
                "properties": {}
            },
            {
                "species": [
                    {
                        "element": "O",
                        "occu": 1
                    }
                ],
                "abc": [
                    0.49801811,
                    0.50198189,
                    0.58253635
                ],
                "xyz": [
                    1.4184735016595287,
                    2.496290219500961,
                    8.223307224159209
                ],
                "label": "O",
                "properties": {}
            },
            {
                "species": [
                    {
                        "element": "O",
                        "occu": 1
                    }
                ],
                "abc": [
                    0.00396478,
                    0.50198189,
                    0.58253635
                ],
                "xyz": [
                    -1.4184672625222878,
                    2.496290219500961,
                    8.223307224159209
                ],
                "label": "O",
                "properties": {}
            },
            {
                "species": [
                    {
                        "element": "O",
                        "occu": 1
                    }
                ],
                "abc": [
                    0.16825312,
                    0.33650524,
                    0.42210083
                ],
                "xyz": [
                    3.037657678839345e-06,
                    1.673396503253979,
                    5.958537702690309
                ],
                "label": "O",
                "properties": {}
            },
            {
                "species": [
                    {
                        "element": "O",
                        "occu": 1
                    }
                ],
                "abc": [
                    0.16825312,
                    0.83174688,
                    0.42210083
                ],
                "xyz": [
                    -1.4218788413767485,
                    4.13616834193847,
                    5.958537702690309
                ],
                "label": "O",
                "properties": {}
            },
            {
                "species": [
                    {
                        "element": "O",
                        "occu": 1
                    }
                ],
                "abc": [
                    0.66349476,
                    0.83174688,
                    0.42210083
                ],
                "xyz": [
                    1.4218854069813305,
                    4.13616834193847,
                    5.958537702690309
                ],
                "label": "O",
                "properties": {}
            },
            {
                "species": [
                    {
                        "element": "O",
                        "occu": 1
                    }
                ],
                "abc": [
                    0.16807435,
                    0.33614971,
                    0.08117858
                ],
                "xyz": [
                    -2.7334043543048026e-06,
                    1.6716284991099666,
                    1.1459480654915117
                ],
                "label": "O",
                "properties": {}
            },
            {
                "species": [
                    {
                        "element": "O",
                        "occu": 1
                    }
                ],
                "abc": [
                    0.16807435,
                    0.83192565,
                    0.08117858
                ],
                "xyz": [
                    -1.423418634270969,
                    4.137057341743901,
                    1.1459480654915117
                ],
                "label": "O",
                "properties": {}
            },
            {
                "species": [
                    {
                        "element": "O",
                        "occu": 1
                    }
                ],
                "abc": [
                    0.66385029,
                    0.83192565,
                    0.08117858
                ],
                "xyz": [
                    1.4234136582804404,
                    4.137057341743901,
                    1.1459480654915117
                ],
                "label": "O",
                "properties": {}
            },
            {
                "species": [
                    {
                        "element": "O",
                        "occu": 1
                    }
                ],
                "abc": [
                    0.49871392,
                    0.99742885,
                    0.92080518
                ],
                "xyz": [
                    -2.406071180072189e-06,
                    4.960083087664958,
                    12.998440163840797
                ],
                "label": "O",
                "properties": {}
            },
            {
                "species": [
                    {
                        "element": "O",
                        "occu": 1
                    }
                ],
                "abc": [
                    0.49871392,
                    0.50128608,
                    0.92080518
                ],
                "xyz": [
                    1.4244666956726595,
                    2.492830047466406,
                    12.998440163840797
                ],
                "label": "O",
                "properties": {}
            },
            {
                "species": [
                    {
                        "element": "O",
                        "occu": 1
                    }
                ],
                "abc": [
                    0.00257115,
                    0.50128608,
                    0.92080518
                ],
                "xyz": [
                    -1.4244719989963617,
                    2.492830047466406,
                    12.998440163840797
                ],
                "label": "O",
                "properties": {}
            },
            {
                "species": [
                    {
                        "element": "O",
                        "occu": 1
                    }
                ],
                "abc": [
                    0.8176988,
                    0.6353966,
                    0.75131216
                ],
                "xyz": [
                    2.8710907706089026,
                    3.159744105677128,
                    10.605811487861073
                ],
                "label": "O",
                "properties": {}
            },
            {
                "species": [
                    {
                        "element": "O",
                        "occu": 1
                    }
                ],
                "abc": [
                    0.8176988,
                    0.1823012,
                    0.75131216
                ],
                "xyz": [
                    4.171967124087288,
                    0.9065600007268959,
                    10.605811487861073
                ],
                "label": "O",
                "properties": {}
            },
            {
                "species": [
                    {
                        "element": "O",
                        "occu": 1
                    }
                ],
                "abc": [
                    0.3646034,
                    0.1823012,
                    0.75131216
                ],
                "xyz": [
                    1.5702139685660703,
                    0.9065600007268959,
                    10.605811487861073
                ],
                "label": "O",
                "properties": {}
            },
            {
                "species": [
                    {
                        "element": "O",
                        "occu": 1
                    }
                ],
                "abc": [
                    0.84762164,
                    0.69524327,
                    0.25009699
                ],
                "xyz": [
                    2.871087957856295,
                    3.4573537604610913,
                    3.530465325653023
                ],
                "label": "O",
                "properties": {}
            },
            {
                "species": [
                    {
                        "element": "O",
                        "occu": 1
                    }
                ],
                "abc": [
                    0.84762164,
                    0.15237836,
                    0.25009699
                ],
                "xyz": [
                    4.4297003925713065,
                    0.7577576349051087,
                    3.530465325653023
                ],
                "label": "O",
                "properties": {}
            },
            {
                "species": [
                    {
                        "element": "O",
                        "occu": 1
                    }
                ],
                "abc": [
                    0.30475673,
                    0.15237836,
                    0.25009699
                ],
                "xyz": [
                    1.3124749857050217,
                    0.7577576349051087,
                    3.530465325653023
                ],
                "label": "O",
                "properties": {}
            }
        ]
    },
    "spacegroup": {
        "source": "spglib",
        "symbol": "P3m1",
        "number": 156,
        "point_group": "3m",
        "crystal_system": "trigonal",
        "hall": "P 3 -2\""
    },
    "dielectric": {
        "epsilon_ionic": [
            [
                21.98732998,
                -0.00176719,
                -0.00041619
            ],
            [
                -0.00176719,
                21.9872045,
                -0.0004338
            ],
            [
                -0.00041619,
                -0.0004338,
                29.13180744
            ]
        ],
        "epsilon_ionic_avg": 24.36878064,
        "epsilon_ionic_eig": [
            21.989035543368242,
            21.985498886060686,
            29.131807490571077
        ],
        "epsilon_electronic": [
            [
                5.80168225,
                5.8e-07,
                -0.0
            ],
            [
                5.8e-07,
                5.80168126,
                -0.0
            ],
            [
                0.0,
                0.0,
                6.29585514
            ]
        ],
        "epsilon_electronic_avg": 5.966406216666666,
        "epsilon_electronic_eig": [
            5.801682517512295,
            5.801680992487705,
            6.29585514
        ]
    },
    "phonon": {
        "lowest_freq": -0.046622462193024974,
        "frequency": [
            -0.046622462193024974,
            -0.037718461223413484,
            -0.03771845626652748,
            1.951863420687526,
            1.9518636773756892,
            2.1703777578005856,
            2.170378039318532,
            2.481450364148446,
            2.7987554261060112,
            2.798755757939381,
            2.815286138541183,
            2.867331557755462,
            3.0108366471310855,
            3.3178355257721703,
            3.3178359603810206,
            3.3674952121421433,
            3.518321247253227,
            3.5390971194131975,
            3.5390975786435357,
            3.682508935923217,
            3.682509400498006,
            3.692708528016427,
            4.080055276096402,
            4.080055695404651,
            4.516683028303095,
            4.516683580230511,
            4.704437514627058,
            4.70443794322261,
            4.77321748744043,
            5.347161377392067,
            5.420446048601781,
            5.638316764338256,
            5.638317371186329,
            6.640781697106883,
            6.640782285953514,
            6.6726094685429045,
            6.9598939216405,
            7.151092258117186,
            7.353953715900389,
            7.353954413811026,
            8.151226225215561,
            8.151226674964075,
            8.20499418702722,
            8.532317450819178,
            8.53231770861563,
            8.866732123752238,
            9.100838924774084,
            9.100839676705137,
            9.277493208626392,
            9.608690305056436,
            9.608691208010324,
            10.327202292525227,
            10.32720335748019,
            10.47320640049735,
            10.764027920412476,
            10.764028204228314,
            11.104567146936198,
            11.104567477070805,
            11.259469258631414,
            11.537539435775576,
            11.537540389012229,
            11.918138096102501,
            11.970473824058287,
            11.970474405940314,
            12.385103968156299,
            12.385104116156752,
            12.569292436380495,
            12.569293126650411,
            13.144556777297987,
            13.85623756718802,
            14.46282495254665,
            14.903086985059687,
            14.903087501637494,
            15.103563700593643,
            15.103564461129773,
            15.793238162391008,
            15.793238781390416,
            15.920688647653282,
            15.920689031430854,
            16.578158844255707,
            16.578159802504945,
            17.773166689579227,
            18.3734976079259,
            18.944439427380825,
            19.478975661726714,
            19.478976477273104,
            20.63671423576341,
            22.929705762856873,
            23.4223215349324,
            23.821158650956896
        ]
    },
    "born_effective_charge": {
        "avg_abs_trace": 3.395459222222222,
        "tensors": [
            [
                [
                    2.96653,
                    -0.00031,
                    -0.00026
                ],
                [
                    -0.0,
                    2.9665,
                    -5e-05
                ],
                [
                    -0.0,
                    0.0,
                    2.73614
                ]
            ],
            [
                [
                    3.05735,
                    -0.00013,
                    0.00012
                ],
                [
                    -0.0,
                    3.05744,
                    -0.00012
                ],
                [
                    -0.0,
                    0.0,
                    2.50469
                ]
            ],
            [
                [
                    3.01532,
                    -0.00014,
                    0.00011
                ],
                [
                    -0.0,
                    3.01532,
                    -4e-05
                ],
                [
                    -0.0,
                    0.0,
                    2.90042
                ]
            ],
            [
                [
                    2.94467,
                    -0.00014,
                    3e-05
                ],
                [
                    -0.0,
                    2.94467,
                    -5e-05
                ],
                [
                    -0.0,
                    0.0,
                    2.74026
                ]
            ],
            [
                [
                    2.75761,
                    -0.00037,
                    -0.00019
                ],
                [
                    -0.0,
                    2.75759,
                    3e-05
                ],
                [
                    -0.0,
                    0.0,
                    2.68875
                ]
            ],
            [
                [
                    2.75381,
                    -0.00013,
                    0.00017
                ],
                [
                    -0.0,
                    2.75397,
                    -0.00011
                ],
                [
                    -0.0,
                    0.0,
                    2.64305
                ]
            ],
            [
                [
                    7.16694,
                    -0.00095,
                    0.00035
                ],
                [
                    0.0,
                    7.16652,
                    -0.00058
                ],
                [
                    -0.0,
                    0.0,
                    6.72573
                ]
            ],
            [
                [
                    7.29418,
                    -0.00076,
                    -0.00048
                ],
                [
                    0.0,
                    7.29385,
                    0.00024
                ],
                [
                    -0.0,
                    0.0,
                    7.02383
                ]
            ],
            [
                [
                    5.12085,
                    -0.00078,
                    -0.00058
                ],
                [
                    0.0,
                    5.12078,
                    -0.00024
                ],
                [
                    -0.0,
                    0.0,
                    6.83108
                ]
            ],
            [
                [
                    5.20706,
                    -0.00066,
                    -0.00044
                ],
                [
                    0.0,
                    5.20722,
                    0.00018
                ],
                [
                    -0.0,
                    0.0,
                    7.17327
                ]
            ],
            [
                [
                    4.83522,
                    -0.00048,
                    0.00037
                ],
                [
                    0.0,
                    4.83503,
                    -4e-05
                ],
                [
                    -0.0,
                    0.0,
                    7.21432
                ]
            ],
            [
                [
                    2.31067,
                    -3e-05,
                    -0.0004
                ],
                [
                    0.0,
                    2.31056,
                    0.00023
                ],
                [
                    -0.0,
                    0.0,
                    2.75447
                ]
            ],
            [
                [
                    -1.79566,
                    0.00017,
                    0.00035
                ],
                [
                    -0.0,
                    -4.50895,
                    -1.69421
                ],
                [
                    -0.0,
                    -1.88815,
                    -3.03069
                ]
            ],
            [
                [
                    -3.8306,
                    1.17519,
                    -1.46755
                ],
                [
                    1.17498,
                    -2.47409,
                    0.84742
                ],
                [
                    -1.63519,
                    0.94408,
                    -3.03069
                ]
            ],
            [
                [
                    -3.83079,
                    -1.17454,
                    1.46745
                ],
                [
                    -1.17498,
                    -2.47409,
                    0.84742
                ],
                [
                    1.63519,
                    0.94408,
                    -3.03069
                ]
            ],
            [
                [
                    -1.54581,
                    0.00064,
                    5e-05
                ],
                [
                    -0.0,
                    -3.66035,
                    -1.41811
                ],
                [
                    -0.0,
                    -1.52439,
                    -2.49589
                ]
            ],
            [
                [
                    -3.13193,
                    0.91553,
                    -1.22841
                ],
                [
                    0.91549,
                    -2.07457,
                    0.70921
                ],
                [
                    -1.32016,
                    0.76219,
                    -2.49589
                ]
            ],
            [
                [
                    -3.13214,
                    -0.91576,
                    1.22831
                ],
                [
                    -0.91549,
                    -2.07457,
                    0.70921
                ],
                [
                    1.32016,
                    0.76219,
                    -2.49589
                ]
            ],
            [
                [
                    -1.83165,
                    0.00013,
                    -0.00051
                ],
                [
                    -0.0,
                    -4.51912,
                    1.73047
                ],
                [
                    0.0,
                    1.89717,
                    -3.11258
                ]
            ],
            [
                [
                    -3.84698,
                    1.16378,
                    1.49881
                ],
                [
                    1.16364,
                    -2.50352,
                    -0.86524
                ],
                [
                    1.643,
                    -0.94859,
                    -3.11258
                ]
            ],
            [
                [
                    -3.8472,
                    -1.16372,
                    -1.49854
                ],
                [
                    -1.16364,
                    -2.50352,
                    -0.86524
                ],
                [
                    -1.643,
                    -0.94859,
                    -3.11258
                ]
            ],
            [
                [
                    -1.88394,
                    -0.00013,
                    0.00018
                ],
                [
                    -0.0,
                    -4.55285,
                    1.70083
                ],
                [
                    0.0,
                    1.86605,
                    -3.18866
                ]
            ],
            [
                [
                    -3.88549,
                    1.15586,
                    1.47346
                ],
                [
                    1.15572,
                    -2.55126,
                    -0.85057
                ],
                [
                    1.61605,
                    -0.93303,
                    -3.18866
                ]
            ],
            [
                [
                    -3.88559,
                    -1.15548,
                    -1.473
                ],
                [
                    -1.15572,
                    -2.55126,
                    -0.85057
                ],
                [
                    -1.61605,
                    -0.93303,
                    -3.18866
                ]
            ],
            [
                [
                    -1.85206,
                    0.00096,
                    0.00016
                ],
                [
                    -0.0,
                    -2.83226,
                    -0.00923
                ],
                [
                    -0.0,
                    -0.01939,
                    -3.45214
                ]
            ],
            [
                [
                    -2.58776,
                    0.42491,
                    -0.00759
                ],
                [
                    0.42447,
                    -2.09715,
                    0.00467
                ],
                [
                    -0.01679,
                    0.00969,
                    -3.45214
                ]
            ],
            [
                [
                    -2.58752,
                    -0.4239,
                    0.00826
                ],
                [
                    -0.42447,
                    -2.09715,
                    0.00467
                ],
                [
                    0.01679,
                    0.00969,
                    -3.45214
                ]
            ],
            [
                [
                    -1.38632,
                    0.00043,
                    -1e-05
                ],
                [
                    -0.0,
                    -2.58334,
                    -0.37035
                ],
                [
                    -0.0,
                    -0.12118,
                    -2.69871
                ]
            ],
            [
                [
                    -2.28433,
                    0.5186,
                    -0.32069
                ],
                [
                    0.51826,
                    -1.68569,
                    0.18506
                ],
                [
                    -0.10495,
                    0.06059,
                    -2.69871
                ]
            ],
            [
                [
                    -2.28445,
                    -0.5178,
                    0.32047
                ],
                [
                    -0.51826,
                    -1.68569,
                    0.18506
                ],
                [
                    0.10495,
                    0.06059,
                    -2.69871
                ]
            ]
        ]
    },
    "band_gap": 2.0896999999999997,
    "is_direct": false,
    "formula": "Ba6Ti5PtO18"
}