{
    "mp_id": "mp-19116",
    "nelements": 4,
    "nsites": 20,
    "elements": [
        "Ca",
        "Mo",
        "O",
        "Sr"
    ],
    "structure": {
        "@module": "pymatgen.core.structure",
        "@class": "Structure",
        "charge": null,
        "lattice": {
            "matrix": [
                [
                    5.72633542,
                    0.0,
                    0.00113679
                ],
                [
                    0.0,
                    5.8721752,
                    0.0
                ],
                [
                    -5.70009438,
                    0.0,
                    8.15300553
                ]
            ],
            "a": 5.726335532837565,
            "b": 5.8721752,
            "c": 9.947993521968044,
            "alpha": 90.0,
            "beta": 124.94757233465226,
            "gamma": 90.0,
            "volume": 274.1913801155111
        },
        "sites": [
            {
                "species": [
                    {
                        "element": "Sr",
                        "occu": 1
                    }
                ],
                "abc": [
                    0.25928685,
                    0.45323226,
                    0.74830411
                ],
                "xyz": [
                    -2.7806405788466746,
                    2.661459237011952,
                    6.10122230164994
                ],
                "label": "Sr",
                "properties": {}
            },
            {
                "species": [
                    {
                        "element": "Sr",
                        "occu": 1
                    }
                ],
                "abc": [
                    0.74071315,
                    0.95323226,
                    0.75169589
                ],
                "xyz": [
                    -0.043165571153325644,
                    5.5975468370119525,
                    6.12942278335006
                ],
                "label": "Sr",
                "properties": {}
            },
            {
                "species": [
                    {
                        "element": "Sr",
                        "occu": 1
                    }
                ],
                "abc": [
                    0.25928685,
                    0.04676774,
                    0.24830411
                ],
                "xyz": [
                    0.06940661115332514,
                    0.274628362988048,
                    2.0247195366499398
                ],
                "label": "Sr",
                "properties": {}
            },
            {
                "species": [
                    {
                        "element": "Sr",
                        "occu": 1
                    }
                ],
                "abc": [
                    0.74071315,
                    0.54676774,
                    0.25169589
                ],
                "xyz": [
                    2.8068816188466745,
                    3.2107159629880475,
                    2.05292001835006
                ],
                "label": "Sr",
                "properties": {}
            },
            {
                "species": [
                    {
                        "element": "Ca",
                        "occu": 1
                    }
                ],
                "abc": [
                    0.0,
                    0.0,
                    0.5
                ],
                "xyz": [
                    -2.85004719,
                    0.0,
                    4.076502765
                ],
                "label": "Ca",
                "properties": {}
            },
            {
                "species": [
                    {
                        "element": "Ca",
                        "occu": 1
                    }
                ],
                "abc": [
                    0.0,
                    0.5,
                    0.0
                ],
                "xyz": [
                    0.0,
                    2.9360876,
                    0.0
                ],
                "label": "Ca",
                "properties": {}
            },
            {
                "species": [
                    {
                        "element": "Mo",
                        "occu": 1
                    }
                ],
                "abc": [
                    0.5,
                    0.0,
                    0.0
                ],
                "xyz": [
                    2.86316771,
                    0.0,
                    0.000568395
                ],
                "label": "Mo",
                "properties": {}
            },
            {
                "species": [
                    {
                        "element": "Mo",
                        "occu": 1
                    }
                ],
                "abc": [
                    0.5,
                    0.5,
                    0.5
                ],
                "xyz": [
                    0.013120519999999747,
                    2.9360876,
                    4.07707116
                ],
                "label": "Mo",
                "properties": {}
            },
            {
                "species": [
                    {
                        "element": "O",
                        "occu": 1
                    }
                ],
                "abc": [
                    0.18567839,
                    0.4708061,
                    0.27160181
                ],
                "xyz": [
                    -0.48489920939325404,
                    2.7646559044287202,
                    2.214582136224977
                ],
                "label": "O",
                "properties": {}
            },
            {
                "species": [
                    {
                        "element": "O",
                        "occu": 1
                    }
                ],
                "abc": [
                    0.81432161,
                    0.9708061,
                    0.22839819
                ],
                "xyz": [
                    3.3611874393932544,
                    5.70074350442872,
                    1.8630574187750226
                ],
                "label": "O",
                "properties": {}
            },
            {
                "species": [
                    {
                        "element": "O",
                        "occu": 1
                    }
                ],
                "abc": [
                    0.81432161,
                    0.5291939,
                    0.72839819
                ],
                "xyz": [
                    0.5111402493932546,
                    3.10751929557128,
                    5.939560183775022
                ],
                "label": "O",
                "properties": {}
            },
            {
                "species": [
                    {
                        "element": "O",
                        "occu": 1
                    }
                ],
                "abc": [
                    0.18567839,
                    0.0291939,
                    0.77160181
                ],
                "xyz": [
                    -3.3349463993932544,
                    0.17143169557128,
                    6.291084901224978
                ],
                "label": "O",
                "properties": {}
            },
            {
                "species": [
                    {
                        "element": "O",
                        "occu": 1
                    }
                ],
                "abc": [
                    0.36624534,
                    0.22980525,
                    0.55004688
                ],
                "xyz": [
                    -1.0380754665725922,
                    1.3494566898798,
                    4.484951598439305
                ],
                "label": "O",
                "properties": {}
            },
            {
                "species": [
                    {
                        "element": "O",
                        "occu": 1
                    }
                ],
                "abc": [
                    0.63375466,
                    0.72980525,
                    0.94995312
                ],
                "xyz": [
                    -1.7857306834274085,
                    4.2855442898798,
                    7.745693486560694
                ],
                "label": "O",
                "properties": {}
            },
            {
                "species": [
                    {
                        "element": "O",
                        "occu": 1
                    }
                ],
                "abc": [
                    0.63375466,
                    0.77019475,
                    0.44995312
                ],
                "xyz": [
                    1.0643165065725917,
                    4.5227185101202005,
                    3.6691907215606947
                ],
                "label": "O",
                "properties": {}
            },
            {
                "species": [
                    {
                        "element": "O",
                        "occu": 1
                    }
                ],
                "abc": [
                    0.36624534,
                    0.27019475,
                    0.05004688
                ],
                "xyz": [
                    1.811971723427408,
                    1.5866309101201999,
                    0.408448833439305
                ],
                "label": "O",
                "properties": {}
            },
            {
                "species": [
                    {
                        "element": "O",
                        "occu": 1
                    }
                ],
                "abc": [
                    0.26976846,
                    0.81220457,
                    0.04154571
                ],
                "xyz": [
                    1.3079702196127434,
                    4.769407533280664,
                    0.33902907346541966
                ],
                "label": "O",
                "properties": {}
            },
            {
                "species": [
                    {
                        "element": "O",
                        "occu": 1
                    }
                ],
                "abc": [
                    0.73023154,
                    0.31220457,
                    0.45845429
                ],
                "xyz": [
                    1.5683180103872565,
                    1.833319933280664,
                    3.73861048153458
                ],
                "label": "O",
                "properties": {}
            },
            {
                "species": [
                    {
                        "element": "O",
                        "occu": 1
                    }
                ],
                "abc": [
                    0.73023154,
                    0.18779543,
                    0.95845429
                ],
                "xyz": [
                    -1.2817291796127437,
                    1.102767666719336,
                    7.8151132465345805
                ],
                "label": "O",
                "properties": {}
            },
            {
                "species": [
                    {
                        "element": "O",
                        "occu": 1
                    }
                ],
                "abc": [
                    0.26976846,
                    0.68779543,
                    0.54154571
                ],
                "xyz": [
                    -1.5420769703872566,
                    4.038855266719336,
                    4.415531838465419
                ],
                "label": "O",
                "properties": {}
            }
        ]
    },
    "spacegroup": {
        "source": "spglib",
        "symbol": "P2_1/c",
        "number": 14,
        "point_group": "2/m",
        "crystal_system": "monoclinic",
        "hall": "-P 2ybc"
    },
    "dielectric": {
        "epsilon_ionic": [
            [
                16.34197922,
                1e-08,
                0.14563368
            ],
            [
                1e-08,
                16.58652148,
                1e-08
            ],
            [
                0.14563368,
                1e-08,
                19.5777443
            ]
        ],
        "epsilon_ionic_avg": 17.502081666666673,
        "epsilon_ionic_eig": [
            19.584285683114658,
            16.335437836885344,
            16.58652148000001
        ],
        "epsilon_electronic": [
            [
                4.75247486,
                0.0,
                -0.06541404
            ],
            [
                0.0,
                4.79489889,
                0.0
            ],
            [
                -0.06586479,
                0.0,
                4.73934394
            ]
        ],
        "epsilon_electronic_avg": 4.76223923,
        "epsilon_electronic_eig": [
            4.811875961776883,
            4.679942838223118,
            4.79489889
        ]
    },
    "phonon": {
        "lowest_freq": -0.033313845265476115,
        "frequency": [
            -0.033313845265476115,
            -0.02275176959518205,
            -0.012616843841264987,
            2.496948587604947,
            2.957462778573975,
            2.9656435990366496,
            3.1580562082761032,
            3.2511372592974164,
            3.303973793430734,
            3.4087243371490414,
            3.7106514451774104,
            3.9947254426668812,
            4.090024391868588,
            4.260724772375289,
            4.3912965568201185,
            4.46302244929699,
            4.529835111403236,
            4.680480365578693,
            4.8633977646660655,
            5.3542841992615795,
            5.380762987320177,
            6.025561641362565,
            6.215748521504639,
            6.382491533954126,
            6.787701315256652,
            6.93337488309743,
            7.111530055162474,
            7.42721950600295,
            7.56205953832699,
            7.696019397917492,
            7.736178155315377,
            7.994887670058391,
            8.057590074215765,
            8.238240988021877,
            8.950407300389609,
            9.74026011641502,
            10.153868557674771,
            10.58514365312922,
            10.767341834389237,
            11.277965427426402,
            11.654572831280968,
            11.809626078501829,
            11.834978987052853,
            12.603831462281258,
            12.661054946260307,
            12.799706873133308,
            12.980946553818951,
            13.443856850520323,
            16.212515217265256,
            16.219342731230768,
            16.31871863572331,
            16.535856990918823,
            16.701997088419784,
            16.75234793476359,
            17.00548173591331,
            17.110949347168262,
            18.224699813387407,
            19.76042248750804,
            22.86772043175004,
            23.064093211634045
        ]
    },
    "born_effective_charge": {
        "avg_abs_trace": 3.079000666666667,
        "tensors": [
            [
                [
                    2.55863,
                    0.14351,
                    -0.1544
                ],
                [
                    0.18398,
                    2.5107,
                    -0.11011
                ],
                [
                    0.07262,
                    -0.2445,
                    2.45163
                ]
            ],
            [
                [
                    2.55867,
                    -0.14354,
                    -0.15428
                ],
                [
                    -0.18398,
                    2.5107,
                    0.11011
                ],
                [
                    0.07267,
                    0.24452,
                    2.45143
                ]
            ],
            [
                [
                    2.55863,
                    -0.14351,
                    -0.1544
                ],
                [
                    -0.1844,
                    2.51077,
                    0.10989
                ],
                [
                    0.07262,
                    0.2445,
                    2.45163
                ]
            ],
            [
                [
                    2.55867,
                    0.14354,
                    -0.15428
                ],
                [
                    0.1844,
                    2.51077,
                    -0.10989
                ],
                [
                    0.07267,
                    -0.24452,
                    2.45143
                ]
            ],
            [
                [
                    3.12306,
                    -0.32134,
                    0.44138
                ],
                [
                    0.25387,
                    3.24365,
                    0.04581
                ],
                [
                    -0.38785,
                    0.14668,
                    3.18482
                ]
            ],
            [
                [
                    3.12306,
                    0.32134,
                    0.44138
                ],
                [
                    -0.25387,
                    3.24365,
                    -0.04581
                ],
                [
                    -0.38785,
                    -0.14668,
                    3.18482
                ]
            ],
            [
                [
                    7.2176,
                    -0.2538,
                    -0.17712
                ],
                [
                    -0.20221,
                    7.18425,
                    -0.1457
                ],
                [
                    -0.09179,
                    -0.04385,
                    7.18979
                ]
            ],
            [
                [
                    7.2176,
                    0.2538,
                    -0.17712
                ],
                [
                    0.20221,
                    7.18425,
                    0.1457
                ],
                [
                    -0.09179,
                    0.04385,
                    7.18979
                ]
            ],
            [
                [
                    -1.92619,
                    0.02337,
                    -0.61263
                ],
                [
                    0.08649,
                    -1.68453,
                    -0.26497
                ],
                [
                    -0.58578,
                    -0.2648,
                    -4.10552
                ]
            ],
            [
                [
                    -1.9263,
                    -0.02329,
                    -0.61268
                ],
                [
                    -0.08649,
                    -1.68453,
                    0.26497
                ],
                [
                    -0.58587,
                    0.26469,
                    -4.10564
                ]
            ],
            [
                [
                    -1.9263,
                    0.02329,
                    -0.61268
                ],
                [
                    0.08655,
                    -1.68461,
                    -0.26438
                ],
                [
                    -0.58587,
                    -0.26469,
                    -4.10564
                ]
            ],
            [
                [
                    -1.92619,
                    -0.02337,
                    -0.61263
                ],
                [
                    -0.08655,
                    -1.68461,
                    0.26438
                ],
                [
                    -0.58578,
                    0.2648,
                    -4.10552
                ]
            ],
            [
                [
                    -2.48664,
                    -1.15761,
                    0.33851
                ],
                [
                    -1.20637,
                    -3.46287,
                    0.48676
                ],
                [
                    0.38278,
                    0.49478,
                    -1.7773
                ]
            ],
            [
                [
                    -2.48681,
                    1.15769,
                    0.33841
                ],
                [
                    1.20637,
                    -3.46287,
                    -0.48676
                ],
                [
                    0.38282,
                    -0.49464,
                    -1.77726
                ]
            ],
            [
                [
                    -2.48681,
                    -1.15769,
                    0.33841
                ],
                [
                    -1.20604,
                    -3.46351,
                    0.48728
                ],
                [
                    0.38282,
                    0.49464,
                    -1.77726
                ]
            ],
            [
                [
                    -2.48664,
                    1.15761,
                    0.33851
                ],
                [
                    1.20604,
                    -3.46351,
                    -0.48728
                ],
                [
                    0.38278,
                    -0.49478,
                    -1.7773
                ]
            ],
            [
                [
                    -3.31609,
                    -1.16264,
                    0.29642
                ],
                [
                    -1.11529,
                    -2.57717,
                    0.24247
                ],
                [
                    0.37018,
                    0.18187,
                    -1.75594
                ]
            ],
            [
                [
                    -3.31595,
                    1.16233,
                    0.29639
                ],
                [
                    1.11529,
                    -2.57717,
                    -0.24247
                ],
                [
                    0.37022,
                    -0.18191,
                    -1.756
                ]
            ],
            [
                [
                    -3.31595,
                    -1.16233,
                    0.29639
                ],
                [
                    -1.11507,
                    -2.57669,
                    0.2425
                ],
                [
                    0.37022,
                    0.18191,
                    -1.756
                ]
            ],
            [
                [
                    -3.31609,
                    1.16264,
                    0.29642
                ],
                [
                    1.11507,
                    -2.57669,
                    -0.2425
                ],
                [
                    0.37018,
                    -0.18187,
                    -1.75594
                ]
            ]
        ]
    },
    "band_gap": 2.4139000000000004,
    "is_direct": false,
    "formula": "Sr2CaMoO6"
}