{
    "mp_id": "mp-1208777",
    "nelements": 5,
    "nsites": 23,
    "elements": [
        "Ga",
        "Nb",
        "O",
        "Si",
        "Sr"
    ],
    "structure": {
        "@module": "pymatgen.core.structure",
        "@class": "Structure",
        "charge": null,
        "lattice": {
            "matrix": [
                [
                    8.2986263,
                    0.0,
                    0.0
                ],
                [
                    -4.14931315,
                    7.186821,
                    0.0
                ],
                [
                    0.0,
                    0.0,
                    5.09279799
                ]
            ],
            "a": 8.2986263,
            "b": 8.298626133451483,
            "c": 5.09279799,
            "alpha": 90.0,
            "beta": 90.0,
            "gamma": 120.00000066389067,
            "volume": 303.73824977776906
        },
        "sites": [
            {
                "species": [
                    {
                        "element": "Sr",
                        "occu": 1
                    }
                ],
                "abc": [
                    0.42873929,
                    0.0,
                    0.0
                ],
                "xyz": [
                    3.5579471478373272,
                    0.0,
                    0.0
                ],
                "label": "Sr",
                "properties": {}
            },
            {
                "species": [
                    {
                        "element": "Sr",
                        "occu": 1
                    }
                ],
                "abc": [
                    0.57126071,
                    0.57126071,
                    0.0
                ],
                "xyz": [
                    2.370339576081337,
                    4.10554846710291,
                    0.0
                ],
                "label": "Sr",
                "properties": {}
            },
            {
                "species": [
                    {
                        "element": "Sr",
                        "occu": 1
                    }
                ],
                "abc": [
                    0.0,
                    0.42873929,
                    0.0
                ],
                "xyz": [
                    -1.7789735739186636,
                    3.08127253289709,
                    0.0
                ],
                "label": "Sr",
                "properties": {}
            },
            {
                "species": [
                    {
                        "element": "Nb",
                        "occu": 1
                    }
                ],
                "abc": [
                    0.0,
                    0.0,
                    0.0
                ],
                "xyz": [
                    0.0,
                    0.0,
                    0.0
                ],
                "label": "Nb",
                "properties": {}
            },
            {
                "species": [
                    {
                        "element": "Ga",
                        "occu": 1
                    }
                ],
                "abc": [
                    0.74587782,
                    0.0,
                    0.5
                ],
                "xyz": [
                    6.189761293638666,
                    0.0,
                    2.546398995
                ],
                "label": "Ga",
                "properties": {}
            },
            {
                "species": [
                    {
                        "element": "Ga",
                        "occu": 1
                    }
                ],
                "abc": [
                    0.25412218,
                    0.25412218,
                    0.5
                ],
                "xyz": [
                    1.054432503180667,
                    1.82633061978978,
                    2.546398995
                ],
                "label": "Ga",
                "properties": {}
            },
            {
                "species": [
                    {
                        "element": "Ga",
                        "occu": 1
                    }
                ],
                "abc": [
                    0.0,
                    0.74587782,
                    0.5
                ],
                "xyz": [
                    -3.094880646819333,
                    5.36049038021022,
                    2.546398995
                ],
                "label": "Ga",
                "properties": {}
            },
            {
                "species": [
                    {
                        "element": "Si",
                        "occu": 1
                    }
                ],
                "abc": [
                    0.666667,
                    0.333333,
                    0.53675655
                ],
                "xyz": [
                    4.14931729931315,
                    2.395604604393,
                    2.7335926789593348
                ],
                "label": "Si",
                "properties": {}
            },
            {
                "species": [
                    {
                        "element": "Si",
                        "occu": 1
                    }
                ],
                "abc": [
                    0.333333,
                    0.666667,
                    0.46324345
                ],
                "xyz": [
                    -4.149313150403344e-06,
                    4.791216395607,
                    2.3592053110406654
                ],
                "label": "Si",
                "properties": {}
            },
            {
                "species": [
                    {
                        "element": "O",
                        "occu": 1
                    }
                ],
                "abc": [
                    0.666667,
                    0.333333,
                    0.22096241
                ],
                "xyz": [
                    4.14931729931315,
                    2.395604604393,
                    1.125316917513556
                ],
                "label": "O",
                "properties": {}
            },
            {
                "species": [
                    {
                        "element": "O",
                        "occu": 1
                    }
                ],
                "abc": [
                    0.333333,
                    0.666667,
                    0.77903759
                ],
                "xyz": [
                    -4.149313150403344e-06,
                    4.791216395607,
                    3.967481072486444
                ],
                "label": "O",
                "properties": {}
            },
            {
                "species": [
                    {
                        "element": "O",
                        "occu": 1
                    }
                ],
                "abc": [
                    0.16531287,
                    0.69125164,
                    0.32690357
                ],
                "xyz": [
                    -1.496349789100585,
                    4.967901802636439,
                    1.6648538442198242
                ],
                "label": "O",
                "properties": {}
            },
            {
                "species": [
                    {
                        "element": "O",
                        "occu": 1
                    }
                ],
                "abc": [
                    0.52593877,
                    0.83468713,
                    0.32690357
                ],
                "xyz": [
                    0.9011910242668915,
                    5.998746994313731,
                    1.6648538442198242
                ],
                "label": "O",
                "properties": {}
            },
            {
                "species": [
                    {
                        "element": "O",
                        "occu": 1
                    }
                ],
                "abc": [
                    0.30874836,
                    0.47406123,
                    0.32690357
                ],
                "xyz": [
                    0.5951587648336933,
                    3.40699320304983,
                    1.6648538442198242
                ],
                "label": "O",
                "properties": {}
            },
            {
                "species": [
                    {
                        "element": "O",
                        "occu": 1
                    }
                ],
                "abc": [
                    0.83468713,
                    0.52593877,
                    0.67309643
                ],
                "xyz": [
                    4.744471914833694,
                    3.77982779695017,
                    3.4279441457801756
                ],
                "label": "O",
                "properties": {}
            },
            {
                "species": [
                    {
                        "element": "O",
                        "occu": 1
                    }
                ],
                "abc": [
                    0.69125164,
                    0.16531287,
                    0.67309643
                ],
                "xyz": [
                    5.050504174266892,
                    1.18807400568627,
                    3.4279441457801756
                ],
                "label": "O",
                "properties": {}
            },
            {
                "species": [
                    {
                        "element": "O",
                        "occu": 1
                    }
                ],
                "abc": [
                    0.47406123,
                    0.30874836,
                    0.67309643
                ],
                "xyz": [
                    2.652963360899415,
                    2.2189191973635602,
                    3.4279441457801756
                ],
                "label": "O",
                "properties": {}
            },
            {
                "species": [
                    {
                        "element": "O",
                        "occu": 1
                    }
                ],
                "abc": [
                    0.13166956,
                    0.90716055,
                    0.76580067
                ],
                "xyz": [
                    -2.671416725750804,
                    6.51960049111155,
                    3.9000681129166535
                ],
                "label": "O",
                "properties": {}
            },
            {
                "species": [
                    {
                        "element": "O",
                        "occu": 1
                    }
                ],
                "abc": [
                    0.77549099,
                    0.86833044,
                    0.76580067
                ],
                "xyz": [
                    2.8325350117897505,
                    6.24053544113124,
                    3.9000681129166535
                ],
                "label": "O",
                "properties": {}
            },
            {
                "species": [
                    {
                        "element": "O",
                        "occu": 1
                    }
                ],
                "abc": [
                    0.09283945,
                    0.22450901,
                    0.76580067
                ],
                "xyz": [
                    -0.1611182860389465,
                    1.6135060677572102,
                    3.9000681129166535
                ],
                "label": "O",
                "properties": {}
            },
            {
                "species": [
                    {
                        "element": "O",
                        "occu": 1
                    }
                ],
                "abc": [
                    0.86833044,
                    0.77549099,
                    0.23419933
                ],
                "xyz": [
                    3.9881948639610543,
                    5.57331493224279,
                    1.1927298770833468
                ],
                "label": "O",
                "properties": {}
            },
            {
                "species": [
                    {
                        "element": "O",
                        "occu": 1
                    }
                ],
                "abc": [
                    0.90716055,
                    0.13166956,
                    0.23419933
                ],
                "xyz": [
                    6.981848161789751,
                    0.94628555886876,
                    1.1927298770833468
                ],
                "label": "O",
                "properties": {}
            },
            {
                "species": [
                    {
                        "element": "O",
                        "occu": 1
                    }
                ],
                "abc": [
                    0.22450901,
                    0.09283945,
                    0.23419933
                ],
                "xyz": [
                    1.4778964242491957,
                    0.6672205088884501,
                    1.1927298770833468
                ],
                "label": "O",
                "properties": {}
            }
        ]
    },
    "spacegroup": {
        "source": "spglib",
        "symbol": "P321",
        "number": 150,
        "point_group": "32",
        "crystal_system": "trigonal",
        "hall": "P 3 2\""
    },
    "dielectric": {
        "epsilon_ionic": [
            [
                8.99619236,
                -0.00016738,
                -0.0
            ],
            [
                -0.00016738,
                8.99570409,
                0.00051402
            ],
            [
                -0.0,
                0.00051402,
                14.79727285
            ]
        ],
        "epsilon_ionic_avg": 10.929723099999999,
        "epsilon_ionic_eig": [
            8.996244224324975,
            8.99565218013276,
            14.797272895542262
        ],
        "epsilon_electronic": [
            [
                3.43627372,
                -0.0,
                -0.0
            ],
            [
                0.0,
                3.43627378,
                -0.0
            ],
            [
                0.0,
                0.0,
                3.75076623
            ]
        ],
        "epsilon_electronic_avg": 3.5411045766666667,
        "epsilon_electronic_eig": [
            3.43627372,
            3.43627378,
            3.75076623
        ]
    },
    "phonon": {
        "lowest_freq": -0.05908570866553031,
        "frequency": [
            -0.05908570866553031,
            -0.03333291963227467,
            -0.03333291930233039,
            2.0264875200657135,
            2.7970181888665637,
            2.7970181976044453,
            3.0584285073991606,
            3.2825653373926817,
            3.2825653411153817,
            3.5679360969688503,
            3.5679361003938013,
            3.689638832002296,
            3.75785049287929,
            4.280110369217748,
            4.280110374927883,
            4.606964416330292,
            4.9428945554849255,
            4.942894575262821,
            5.372918474344516,
            5.37291849708822,
            5.6628363980274985,
            5.765684112824831,
            5.765684112824831,
            5.940496923263427,
            6.564872481837309,
            6.564872500451543,
            6.983742520748146,
            7.219247956510087,
            7.434561550665004,
            7.434561550665004,
            7.897242946066644,
            8.45336821507518,
            8.453368229530962,
            8.856309364416271,
            8.856309364416271,
            9.26070757860208,
            9.45602834616217,
            9.45602837200813,
            9.911412874342037,
            12.8008233194551,
            12.800823357640164,
            13.030907409460575,
            13.0309074375937,
            13.998034141186528,
            13.998034184835538,
            15.18117799220661,
            15.181178008305501,
            15.260816354216551,
            15.850149645930816,
            15.850149723027922,
            16.107226769875435,
            17.208051733224952,
            17.208051804238256,
            17.267663215921182,
            17.44383592341037,
            18.36419352045317,
            19.103337699698365,
            19.103337699698365,
            20.15483661274625,
            20.15483661274625,
            22.888648052683255,
            25.43145162484158,
            25.43145167289234,
            25.720121540203724,
            25.816077433995936,
            27.020828103667316,
            27.020828148891717,
            29.06551407725579,
            29.252047536963325
        ]
    },
    "born_effective_charge": {
        "avg_abs_trace": 2.486339855072464,
        "tensors": [
            [
                [
                    2.90324,
                    0.0,
                    0.0
                ],
                [
                    -0.00028,
                    2.38821,
                    -0.07199
                ],
                [
                    4e-05,
                    -0.14226,
                    2.33833
                ]
            ],
            [
                [
                    2.51698,
                    0.22332,
                    -0.06266
                ],
                [
                    0.2234,
                    2.77428,
                    0.0364
                ],
                [
                    -0.12322,
                    0.0711,
                    2.33833
                ]
            ],
            [
                [
                    2.51698,
                    -0.22332,
                    0.06266
                ],
                [
                    -0.22337,
                    2.77449,
                    0.03569
                ],
                [
                    0.12318,
                    0.07117,
                    2.33833
                ]
            ],
            [
                [
                    5.09799,
                    0.0,
                    0.0
                ],
                [
                    -0.00027,
                    5.09733,
                    0.00042
                ],
                [
                    0.0,
                    0.0,
                    7.25997
                ]
            ],
            [
                [
                    3.2542,
                    0.0,
                    0.0
                ],
                [
                    -0.00045,
                    2.37443,
                    0.40794
                ],
                [
                    5e-05,
                    -0.36957,
                    3.33825
                ]
            ],
            [
                [
                    2.59454,
                    0.38088,
                    0.35311
                ],
                [
                    0.38038,
                    3.03433,
                    -0.20278
                ],
                [
                    -0.32008,
                    0.18474,
                    3.33825
                ]
            ],
            [
                [
                    2.59454,
                    -0.38088,
                    -0.35311
                ],
                [
                    -0.38152,
                    3.03436,
                    -0.20503
                ],
                [
                    0.32003,
                    0.18483,
                    3.33825
                ]
            ],
            [
                [
                    3.17522,
                    -0.07287,
                    -9e-05
                ],
                [
                    0.07278,
                    3.17521,
                    5e-05
                ],
                [
                    0.0,
                    0.0,
                    2.91614
                ]
            ],
            [
                [
                    3.17522,
                    0.07287,
                    9e-05
                ],
                [
                    -0.07292,
                    3.17507,
                    -0.00011
                ],
                [
                    0.0,
                    0.0,
                    2.91625
                ]
            ],
            [
                [
                    -1.66537,
                    -0.02431,
                    -1e-05
                ],
                [
                    0.02448,
                    -1.66552,
                    1e-05
                ],
                [
                    0.0,
                    0.0,
                    -2.12986
                ]
            ],
            [
                [
                    -1.66537,
                    0.02431,
                    1e-05
                ],
                [
                    -0.02451,
                    -1.66512,
                    -6e-05
                ],
                [
                    0.0,
                    0.0,
                    -2.13033
                ]
            ],
            [
                [
                    -2.68996,
                    0.27906,
                    -0.09276
                ],
                [
                    0.33596,
                    -1.54675,
                    -0.11254
                ],
                [
                    -0.11016,
                    -0.11655,
                    -1.67021
                ]
            ],
            [
                [
                    -2.09882,
                    -0.67727,
                    -0.05097
                ],
                [
                    -0.62012,
                    -2.13758,
                    0.1368
                ],
                [
                    -0.04586,
                    0.15368,
                    -1.67021
                ]
            ],
            [
                [
                    -1.56618,
                    0.31289,
                    0.14366
                ],
                [
                    0.36953,
                    -2.67029,
                    -0.0243
                ],
                [
                    0.15602,
                    -0.03712,
                    -1.67021
                ]
            ],
            [
                [
                    -1.56618,
                    -0.31289,
                    -0.14366
                ],
                [
                    -0.36967,
                    -2.67069,
                    -0.02393
                ],
                [
                    -0.15607,
                    -0.03714,
                    -1.67015
                ]
            ],
            [
                [
                    -2.09882,
                    0.67727,
                    0.05097
                ],
                [
                    0.62065,
                    -2.13798,
                    0.13633
                ],
                [
                    0.04587,
                    0.15373,
                    -1.67015
                ]
            ],
            [
                [
                    -2.68996,
                    -0.27906,
                    0.09276
                ],
                [
                    -0.33567,
                    -1.54662,
                    -0.11243
                ],
                [
                    0.1102,
                    -0.11659,
                    -1.67015
                ]
            ],
            [
                [
                    -2.23726,
                    0.39683,
                    0.56835
                ],
                [
                    0.41543,
                    -1.69134,
                    -0.72186
                ],
                [
                    0.6721,
                    -0.75859,
                    -2.64012
                ]
            ],
            [
                [
                    -2.17992,
                    -0.44807,
                    -0.90958
                ],
                [
                    -0.43031,
                    -1.74947,
                    -0.13118
                ],
                [
                    -0.99301,
                    -0.20276,
                    -2.64012
                ]
            ],
            [
                [
                    -1.47694,
                    0.0241,
                    0.34118
                ],
                [
                    0.04301,
                    -2.45264,
                    0.85284
                ],
                [
                    0.32091,
                    0.96136,
                    -2.64012
                ]
            ],
            [
                [
                    -1.47694,
                    -0.0241,
                    -0.34118
                ],
                [
                    -0.04127,
                    -2.45225,
                    0.8536
                ],
                [
                    -0.32094,
                    0.96147,
                    -2.64016
                ]
            ],
            [
                [
                    -2.17992,
                    0.44807,
                    0.90958
                ],
                [
                    0.42969,
                    -1.74899,
                    -0.13144
                ],
                [
                    0.99312,
                    -0.20279,
                    -2.64016
                ]
            ],
            [
                [
                    -2.23726,
                    -0.39683,
                    -0.56835
                ],
                [
                    -0.41494,
                    -1.69248,
                    -0.72243
                ],
                [
                    -0.67219,
                    -0.75867,
                    -2.64016
                ]
            ]
        ]
    },
    "band_gap": 3.7319,
    "is_direct": false,
    "formula": "Sr3NbGa3(SiO7)2"
}