{
    "mp_id": "mp-1191513",
    "nelements": 4,
    "nsites": 24,
    "elements": [
        "B",
        "Na",
        "O",
        "Sc"
    ],
    "structure": {
        "@module": "pymatgen.core.structure",
        "@class": "Structure",
        "charge": null,
        "lattice": {
            "matrix": [
                [
                    5.03002607,
                    0.0,
                    -0.00103435
                ],
                [
                    0.0,
                    9.00350586,
                    0.0
                ],
                [
                    -3.71679709,
                    0.0,
                    5.73450785
                ]
            ],
            "a": 5.03002617634934,
            "b": 9.00350586,
            "c": 6.833678430387553,
            "alpha": 90.0,
            "beta": 122.96090178184181,
            "gamma": 90.0,
            "volume": 259.6690277213031
        },
        "sites": [
            {
                "species": [
                    {
                        "element": "Na",
                        "occu": 1
                    }
                ],
                "abc": [
                    0.0,
                    0.5,
                    0.0
                ],
                "xyz": [
                    0.0,
                    4.50175293,
                    0.0
                ],
                "label": "Na",
                "properties": {}
            },
            {
                "species": [
                    {
                        "element": "Na",
                        "occu": 1
                    }
                ],
                "abc": [
                    0.0,
                    0.0,
                    0.5
                ],
                "xyz": [
                    -1.858398545,
                    0.0,
                    2.867253925
                ],
                "label": "Na",
                "properties": {}
            },
            {
                "species": [
                    {
                        "element": "Na",
                        "occu": 1
                    }
                ],
                "abc": [
                    0.73280983,
                    0.16827953,
                    0.73283272
                ],
                "xyz": [
                    0.9622620280994836,
                    1.515105734473046,
                    4.201677003729192
                ],
                "label": "Na",
                "properties": {}
            },
            {
                "species": [
                    {
                        "element": "Na",
                        "occu": 1
                    }
                ],
                "abc": [
                    0.26719017,
                    0.66827953,
                    0.76716728
                ],
                "xyz": [
                    -1.5074315930994835,
                    6.0168586644730455,
                    4.399050421270808
                ],
                "label": "Na",
                "properties": {}
            },
            {
                "species": [
                    {
                        "element": "Na",
                        "occu": 1
                    }
                ],
                "abc": [
                    0.26719017,
                    0.83172047,
                    0.26716728
                ],
                "xyz": [
                    0.35096695190051663,
                    7.488400125526955,
                    1.5317964962708086
                ],
                "label": "Na",
                "properties": {}
            },
            {
                "species": [
                    {
                        "element": "Na",
                        "occu": 1
                    }
                ],
                "abc": [
                    0.73280983,
                    0.33172047,
                    0.23283272
                ],
                "xyz": [
                    2.8206605730994836,
                    2.9866471955269542,
                    1.3344230787291915
                ],
                "label": "Na",
                "properties": {}
            },
            {
                "species": [
                    {
                        "element": "Sc",
                        "occu": 1
                    }
                ],
                "abc": [
                    0.5,
                    0.5,
                    0.5
                ],
                "xyz": [
                    0.6566144899999999,
                    4.50175293,
                    2.86673675
                ],
                "label": "Sc",
                "properties": {}
            },
            {
                "species": [
                    {
                        "element": "Sc",
                        "occu": 1
                    }
                ],
                "abc": [
                    0.5,
                    0.0,
                    0.0
                ],
                "xyz": [
                    2.515013035,
                    0.0,
                    -0.000517175
                ],
                "label": "Sc",
                "properties": {}
            },
            {
                "species": [
                    {
                        "element": "B",
                        "occu": 1
                    }
                ],
                "abc": [
                    0.2237959,
                    0.32983577,
                    0.73653848
                ],
                "xyz": [
                    -1.6118648677779102,
                    2.969678288032612,
                    4.223454212097903
                ],
                "label": "B",
                "properties": {}
            },
            {
                "species": [
                    {
                        "element": "B",
                        "occu": 1
                    }
                ],
                "abc": [
                    0.7762041,
                    0.82983577,
                    0.76346152
                ],
                "xyz": [
                    1.0666953027779096,
                    7.471431218032612,
                    4.3772732129020975
                ],
                "label": "B",
                "properties": {}
            },
            {
                "species": [
                    {
                        "element": "B",
                        "occu": 1
                    }
                ],
                "abc": [
                    0.7762041,
                    0.67016423,
                    0.26346152
                ],
                "xyz": [
                    2.9250938477779096,
                    6.033827571967389,
                    1.510019287902097
                ],
                "label": "B",
                "properties": {}
            },
            {
                "species": [
                    {
                        "element": "B",
                        "occu": 1
                    }
                ],
                "abc": [
                    0.2237959,
                    0.17016423,
                    0.23653848
                ],
                "xyz": [
                    0.24653367722208974,
                    1.5320746419673879,
                    1.3562002870979029
                ],
                "label": "B",
                "properties": {}
            },
            {
                "species": [
                    {
                        "element": "O",
                        "occu": 1
                    }
                ],
                "abc": [
                    0.47865626,
                    0.41580131,
                    0.77998034
                ],
                "xyz": [
                    -0.49137519160051246,
                    3.7436695311806765,
                    4.472308284473138
                ],
                "label": "O",
                "properties": {}
            },
            {
                "species": [
                    {
                        "element": "O",
                        "occu": 1
                    }
                ],
                "abc": [
                    0.52134374,
                    0.91580131,
                    0.72001966
                ],
                "xyz": [
                    -0.05379437339948723,
                    8.245422461180677,
                    4.128419140526861
                ],
                "label": "O",
                "properties": {}
            },
            {
                "species": [
                    {
                        "element": "O",
                        "occu": 1
                    }
                ],
                "abc": [
                    0.52134374,
                    0.58419869,
                    0.22001966
                ],
                "xyz": [
                    1.8046041716005128,
                    5.259836328819324,
                    1.261165215526862
                ],
                "label": "O",
                "properties": {}
            },
            {
                "species": [
                    {
                        "element": "O",
                        "occu": 1
                    }
                ],
                "abc": [
                    0.47865626,
                    0.08419869,
                    0.27998034
                ],
                "xyz": [
                    1.3670233533994876,
                    0.7580833988193235,
                    1.6050543594731381
                ],
                "label": "O",
                "properties": {}
            },
            {
                "species": [
                    {
                        "element": "O",
                        "occu": 1
                    }
                ],
                "abc": [
                    0.92883683,
                    0.39136465,
                    0.64934733
                ],
                "xyz": [
                    2.258581203132888,
                    3.5236539196718493,
                    3.7227266188864303
                ],
                "label": "O",
                "properties": {}
            },
            {
                "species": [
                    {
                        "element": "O",
                        "occu": 1
                    }
                ],
                "abc": [
                    0.07116317,
                    0.89136465,
                    0.85065267
                ],
                "xyz": [
                    -2.8037507681328884,
                    8.02540684967185,
                    4.87800080611357
                ],
                "label": "O",
                "properties": {}
            },
            {
                "species": [
                    {
                        "element": "O",
                        "occu": 1
                    }
                ],
                "abc": [
                    0.07116317,
                    0.60863535,
                    0.35065267
                ],
                "xyz": [
                    -0.9453522231328885,
                    5.479851940328151,
                    2.01074688111357
                ],
                "label": "O",
                "properties": {}
            },
            {
                "species": [
                    {
                        "element": "O",
                        "occu": 1
                    }
                ],
                "abc": [
                    0.92883683,
                    0.10863535,
                    0.14934733
                ],
                "xyz": [
                    4.116979748132888,
                    0.9780990103281512,
                    0.85547269388643
                ],
                "label": "O",
                "properties": {}
            },
            {
                "species": [
                    {
                        "element": "O",
                        "occu": 1
                    }
                ],
                "abc": [
                    0.26226981,
                    0.17925372,
                    0.78513081
                ],
                "xyz": [
                    -1.5989479282033963,
                    1.6139119184467994,
                    4.502067514443884
                ],
                "label": "O",
                "properties": {}
            },
            {
                "species": [
                    {
                        "element": "O",
                        "occu": 1
                    }
                ],
                "abc": [
                    0.73773019,
                    0.67925372,
                    0.71486919
                ],
                "xyz": [
                    1.0537783632033957,
                    6.115664848446799,
                    4.0986599105561154
                ],
                "label": "O",
                "properties": {}
            },
            {
                "species": [
                    {
                        "element": "O",
                        "occu": 1
                    }
                ],
                "abc": [
                    0.73773019,
                    0.82074628,
                    0.21486919
                ],
                "xyz": [
                    2.9121769082033957,
                    7.389593941553202,
                    1.2314059855561148
                ],
                "label": "O",
                "properties": {}
            },
            {
                "species": [
                    {
                        "element": "O",
                        "occu": 1
                    }
                ],
                "abc": [
                    0.26226981,
                    0.32074628,
                    0.28513081
                ],
                "xyz": [
                    0.25945061679660375,
                    2.887841011553201,
                    1.634813589443885
                ],
                "label": "O",
                "properties": {}
            }
        ]
    },
    "spacegroup": {
        "source": "spglib",
        "symbol": "P2_1/c",
        "number": 14,
        "point_group": "2/m",
        "crystal_system": "monoclinic",
        "hall": "-P 2ybc"
    },
    "dielectric": {
        "epsilon_ionic": [
            [
                8.54908718,
                -0.0,
                -0.19439844
            ],
            [
                -0.0,
                9.13275374,
                -0.0
            ],
            [
                -0.19439844,
                -0.0,
                6.58151665
            ]
        ],
        "epsilon_ionic_avg": 8.087785856666667,
        "epsilon_ionic_eig": [
            8.568110072678005,
            6.562493757321995,
            9.13275374
        ],
        "epsilon_electronic": [
            [
                3.17821866,
                0.0,
                0.12667777
            ],
            [
                0.0,
                3.20312012,
                0.0
            ],
            [
                0.1266768,
                0.0,
                2.81320156
            ]
        ],
        "epsilon_electronic_avg": 3.06484678,
        "epsilon_electronic_eig": [
            3.2178733503388073,
            2.773546869661193,
            3.20312012
        ]
    },
    "phonon": {
        "lowest_freq": -0.15830633836897698,
        "frequency": [
            -0.15830633836897698,
            -0.08647697627338466,
            -0.08165206886742536,
            1.5977087488366122,
            1.6416915414915185,
            2.5436219399295026,
            2.8433699859493706,
            3.5019116143852633,
            3.6259167501179723,
            3.7360580318371355,
            3.7852896667564,
            3.8964535426005704,
            4.04900230820633,
            4.419027127103636,
            4.457660710095453,
            4.59537732966896,
            4.849211723044013,
            4.942341396126142,
            5.260510394287183,
            5.3131838668634765,
            5.508342502890921,
            5.662116963084021,
            5.887105809727457,
            6.0292579268281825,
            6.031001742988437,
            6.298647636505298,
            6.336671564441931,
            6.47992238154802,
            6.507503876288623,
            6.84111357430798,
            7.588345191420195,
            7.632298055152964,
            7.7111355534421655,
            7.957100765524846,
            8.09415804573324,
            8.216194805556599,
            8.36897978096879,
            8.677263634333162,
            8.701943703033667,
            9.350622030252497,
            9.378859052626497,
            9.635057657727709,
            9.976581803414636,
            10.403178895361181,
            10.614887036895784,
            11.357213586704152,
            11.986289546653294,
            12.031917644079837,
            17.289947811043,
            17.40014583491311,
            17.526710733429756,
            17.569986718892586,
            17.605133318065487,
            17.687242011040674,
            17.8163319043415,
            18.00799697728516,
            21.23841039384676,
            21.31728358582249,
            21.75367485161036,
            21.887924512847746,
            28.696446354620612,
            28.929159064079215,
            29.097511012866814,
            29.479403122945595,
            35.98974496079792,
            36.1302615362904,
            36.35493335207769,
            36.544954779381605,
            36.65598153433329,
            36.69932425349378,
            36.85047834822906,
            41.19315542463943
        ]
    },
    "born_effective_charge": {
        "avg_abs_trace": 1.981908611111111,
        "tensors": [
            [
                [
                    0.99877,
                    -0.00723,
                    0.01332
                ],
                [
                    -0.00171,
                    0.96223,
                    0.02607
                ],
                [
                    0.03038,
                    0.06168,
                    1.11925
                ]
            ],
            [
                [
                    0.99877,
                    0.00723,
                    0.01332
                ],
                [
                    0.00171,
                    0.96223,
                    -0.02607
                ],
                [
                    0.03038,
                    -0.06168,
                    1.11925
                ]
            ],
            [
                [
                    1.0336,
                    -0.0328,
                    -0.00191
                ],
                [
                    -0.01771,
                    1.05221,
                    -0.04108
                ],
                [
                    0.00146,
                    -0.09366,
                    1.09679
                ]
            ],
            [
                [
                    1.0336,
                    0.03281,
                    -0.00191
                ],
                [
                    0.01771,
                    1.05221,
                    0.04108
                ],
                [
                    0.00146,
                    0.09365,
                    1.09679
                ]
            ],
            [
                [
                    1.0336,
                    -0.03281,
                    -0.00191
                ],
                [
                    -0.01771,
                    1.05221,
                    -0.04108
                ],
                [
                    0.00146,
                    -0.09365,
                    1.09679
                ]
            ],
            [
                [
                    1.0336,
                    0.0328,
                    -0.00191
                ],
                [
                    0.01771,
                    1.05221,
                    0.04108
                ],
                [
                    0.00146,
                    0.09366,
                    1.09679
                ]
            ],
            [
                [
                    4.35744,
                    -0.18448,
                    0.03554
                ],
                [
                    -0.00909,
                    4.42394,
                    0.08856
                ],
                [
                    0.39973,
                    0.19301,
                    3.90622
                ]
            ],
            [
                [
                    4.35744,
                    0.18448,
                    0.03554
                ],
                [
                    0.00909,
                    4.42394,
                    -0.08856
                ],
                [
                    0.39973,
                    -0.19301,
                    3.90622
                ]
            ],
            [
                [
                    2.89782,
                    0.01894,
                    0.81117
                ],
                [
                    0.04446,
                    3.0315,
                    -0.474
                ],
                [
                    0.50038,
                    -0.94747,
                    0.84135
                ]
            ],
            [
                [
                    2.89778,
                    -0.01895,
                    0.81119
                ],
                [
                    -0.04446,
                    3.0315,
                    0.474
                ],
                [
                    0.50048,
                    0.94746,
                    0.84133
                ]
            ],
            [
                [
                    2.89778,
                    0.01895,
                    0.81119
                ],
                [
                    0.04445,
                    3.03152,
                    -0.474
                ],
                [
                    0.50048,
                    -0.94746,
                    0.84133
                ]
            ],
            [
                [
                    2.89782,
                    -0.01894,
                    0.81117
                ],
                [
                    -0.04445,
                    3.03152,
                    0.474
                ],
                [
                    0.50038,
                    0.94747,
                    0.84135
                ]
            ],
            [
                [
                    -2.3923,
                    -0.71958,
                    0.24403
                ],
                [
                    -0.71761,
                    -1.8199,
                    0.25879
                ],
                [
                    0.19285,
                    0.2738,
                    -1.57325
                ]
            ],
            [
                [
                    -2.39224,
                    0.71949,
                    0.24406
                ],
                [
                    0.71761,
                    -1.8199,
                    -0.25879
                ],
                [
                    0.19286,
                    -0.27378,
                    -1.57319
                ]
            ],
            [
                [
                    -2.39224,
                    -0.71949,
                    0.24406
                ],
                [
                    -0.7176,
                    -1.81992,
                    0.25878
                ],
                [
                    0.19286,
                    0.27378,
                    -1.57319
                ]
            ],
            [
                [
                    -2.3923,
                    0.71958,
                    0.24403
                ],
                [
                    0.7176,
                    -1.81992,
                    -0.25878
                ],
                [
                    0.19285,
                    -0.2738,
                    -1.57325
                ]
            ],
            [
                [
                    -2.84208,
                    0.85056,
                    -0.85321
                ],
                [
                    0.85988,
                    -1.79942,
                    0.47982
                ],
                [
                    -0.74019,
                    0.48244,
                    -1.34422
                ]
            ],
            [
                [
                    -2.84202,
                    -0.85057,
                    -0.85321
                ],
                [
                    -0.85988,
                    -1.79942,
                    -0.47982
                ],
                [
                    -0.74008,
                    -0.48248,
                    -1.34416
                ]
            ],
            [
                [
                    -2.84202,
                    0.85057,
                    -0.85321
                ],
                [
                    0.85989,
                    -1.79942,
                    0.47978
                ],
                [
                    -0.74008,
                    0.48248,
                    -1.34416
                ]
            ],
            [
                [
                    -2.84208,
                    -0.85056,
                    -0.85321
                ],
                [
                    -0.85989,
                    -1.79942,
                    -0.47978
                ],
                [
                    -0.74019,
                    -0.48244,
                    -1.34422
                ]
            ],
            [
                [
                    -1.3752,
                    0.21976,
                    -0.22451
                ],
                [
                    0.1936,
                    -3.15745,
                    0.88851
                ],
                [
                    -0.16967,
                    1.0275,
                    -1.53352
                ]
            ],
            [
                [
                    -1.37518,
                    -0.21981,
                    -0.22456
                ],
                [
                    -0.1936,
                    -3.15745,
                    -0.88851
                ],
                [
                    -0.16966,
                    -1.02756,
                    -1.53339
                ]
            ],
            [
                [
                    -1.37518,
                    0.21981,
                    -0.22456
                ],
                [
                    0.19358,
                    -3.1575,
                    0.8885
                ],
                [
                    -0.16966,
                    1.02756,
                    -1.53339
                ]
            ],
            [
                [
                    -1.3752,
                    -0.21976,
                    -0.22451
                ],
                [
                    -0.19358,
                    -3.1575,
                    -0.8885
                ],
                [
                    -0.16967,
                    -1.0275,
                    -1.53352
                ]
            ]
        ]
    },
    "band_gap": 3.8007999999999997,
    "is_direct": true,
    "formula": "Na3Sc(BO3)2"
}