{
    "mp_id": "mp-11019",
    "nelements": 3,
    "nsites": 8,
    "elements": [
        "Cu",
        "Ga",
        "O"
    ],
    "structure": {
        "@module": "pymatgen.core.structure",
        "@class": "Structure",
        "charge": null,
        "lattice": {
            "matrix": [
                [
                    2.97630857,
                    0.0,
                    0.0
                ],
                [
                    -1.48815478,
                    2.57755972,
                    0.0
                ],
                [
                    0.0,
                    0.0,
                    11.37119829
                ]
            ],
            "a": 2.97630857,
            "b": 2.9763095872915044,
            "c": 11.37119829,
            "alpha": 90.0,
            "beta": 90.0,
            "gamma": 119.99999969667279,
            "volume": 87.23543358599305
        },
        "sites": [
            {
                "species": [
                    {
                        "element": "Ga",
                        "occu": 1
                    }
                ],
                "abc": [
                    0.0,
                    0.0,
                    0.0
                ],
                "xyz": [
                    0.0,
                    0.0,
                    0.0
                ],
                "label": "Ga",
                "properties": {}
            },
            {
                "species": [
                    {
                        "element": "Ga",
                        "occu": 1
                    }
                ],
                "abc": [
                    0.0,
                    0.0,
                    0.5
                ],
                "xyz": [
                    0.0,
                    0.0,
                    5.685599145
                ],
                "label": "Ga",
                "properties": {}
            },
            {
                "species": [
                    {
                        "element": "Cu",
                        "occu": 1
                    }
                ],
                "abc": [
                    0.666667,
                    0.333333,
                    0.75
                ],
                "xyz": [
                    1.48815560815445,
                    0.8591857141467599,
                    8.5283987175
                ],
                "label": "Cu",
                "properties": {}
            },
            {
                "species": [
                    {
                        "element": "Cu",
                        "occu": 1
                    }
                ],
                "abc": [
                    0.333333,
                    0.666667,
                    0.25
                ],
                "xyz": [
                    -1.818154449995113e-06,
                    1.71837400585324,
                    2.8427995725
                ],
                "label": "Cu",
                "properties": {}
            },
            {
                "species": [
                    {
                        "element": "O",
                        "occu": 1
                    }
                ],
                "abc": [
                    0.333333,
                    0.666667,
                    0.41095468
                ],
                "xyz": [
                    -1.818154449995113e-06,
                    1.71837400585324,
                    4.6730471544834975
                ],
                "label": "O",
                "properties": {}
            },
            {
                "species": [
                    {
                        "element": "O",
                        "occu": 1
                    }
                ],
                "abc": [
                    0.666667,
                    0.333333,
                    0.91095468
                ],
                "xyz": [
                    1.48815560815445,
                    0.8591857141467599,
                    10.358646299483498
                ],
                "label": "O",
                "properties": {}
            },
            {
                "species": [
                    {
                        "element": "O",
                        "occu": 1
                    }
                ],
                "abc": [
                    0.333333,
                    0.666667,
                    0.08904532
                ],
                "xyz": [
                    -1.818154449995113e-06,
                    1.71837400585324,
                    1.0125519905165028
                ],
                "label": "O",
                "properties": {}
            },
            {
                "species": [
                    {
                        "element": "O",
                        "occu": 1
                    }
                ],
                "abc": [
                    0.666667,
                    0.333333,
                    0.58904532
                ],
                "xyz": [
                    1.48815560815445,
                    0.8591857141467599,
                    6.698151135516503
                ],
                "label": "O",
                "properties": {}
            }
        ]
    },
    "spacegroup": {
        "source": "spglib",
        "symbol": "P6_3/mmc",
        "number": 194,
        "point_group": "6/mmm",
        "crystal_system": "hexagonal",
        "hall": "-P 6c 2c"
    },
    "dielectric": {
        "epsilon_ionic": [
            [
                5.64011183,
                -2.8e-07,
                -0.0
            ],
            [
                -2.8e-07,
                5.63981311,
                -0.0
            ],
            [
                -0.0,
                -0.0,
                2.16874644
            ]
        ],
        "epsilon_ionic_avg": 4.48289046,
        "epsilon_ionic_eig": [
            5.6401118302624536,
            5.639813109737547,
            2.16874644
        ],
        "epsilon_electronic": [
            [
                5.43930492,
                -1.06e-06,
                0.0
            ],
            [
                -1.06e-06,
                5.43930406,
                -0.0
            ],
            [
                0.0,
                0.0,
                4.66683766
            ]
        ],
        "epsilon_electronic_avg": 5.181815546666666,
        "epsilon_electronic_eig": [
            5.439305633896848,
            5.439303346103152,
            4.66683766
        ]
    },
    "phonon": {
        "lowest_freq": -0.06572920884450399,
        "frequency": [
            -0.06572920884450399,
            -0.06572919508683678,
            -0.043798549635090694,
            1.4330614878872252,
            1.433061788044748,
            3.096051923580488,
            3.0960525708825744,
            3.8001397412339757,
            3.8001405387207834,
            6.923294464346762,
            7.604483824902171,
            10.305487927498527,
            10.562301418385339,
            10.562303628150914,
            10.605233205785698,
            10.605235429651007,
            11.121132522706375,
            11.121134852182367,
            11.248033690297145,
            11.248036047812441,
            18.658437234736365,
            20.90649858315279,
            21.129418964049382,
            22.452309292475594
        ]
    },
    "born_effective_charge": {
        "avg_abs_trace": 2.045247916666667,
        "tensors": [
            [
                [
                    3.39798,
                    0.0,
                    0.0
                ],
                [
                    -0.0,
                    3.39789,
                    0.00013
                ],
                [
                    -0.0,
                    -0.0,
                    2.64044
                ]
            ],
            [
                [
                    3.39798,
                    0.0,
                    0.0
                ],
                [
                    -0.0,
                    3.39789,
                    -0.00013
                ],
                [
                    -0.0,
                    -0.0,
                    2.64044
                ]
            ],
            [
                [
                    0.6666,
                    -2e-05,
                    0.0
                ],
                [
                    -0.0,
                    0.66659,
                    0.0
                ],
                [
                    0.0,
                    -0.0,
                    1.50199
                ]
            ],
            [
                [
                    0.6666,
                    2e-05,
                    0.0
                ],
                [
                    -0.0,
                    0.66658,
                    0.0
                ],
                [
                    -0.0,
                    0.0,
                    1.50199
                ]
            ],
            [
                [
                    -2.03229,
                    0.00019,
                    2e-05
                ],
                [
                    0.0,
                    -2.0323,
                    0.00032
                ],
                [
                    -0.0,
                    0.0,
                    -2.07123
                ]
            ],
            [
                [
                    -2.03229,
                    -0.00019,
                    2e-05
                ],
                [
                    0.0,
                    -2.03218,
                    0.00017
                ],
                [
                    0.0,
                    -0.0,
                    -2.07123
                ]
            ],
            [
                [
                    -2.03229,
                    0.00019,
                    -2e-05
                ],
                [
                    0.0,
                    -2.0323,
                    -0.00032
                ],
                [
                    0.0,
                    -0.0,
                    -2.0712
                ]
            ],
            [
                [
                    -2.03229,
                    -0.00019,
                    -2e-05
                ],
                [
                    0.0,
                    -2.03218,
                    -0.00017
                ],
                [
                    -0.0,
                    0.0,
                    -2.0712
                ]
            ]
        ]
    },
    "band_gap": 1.2358000000000002,
    "is_direct": false,
    "formula": "GaCuO2"
}