{
    "mp_id": "mp-1213894",
    "nelements": 4,
    "nsites": 28,
    "elements": [
        "B",
        "Ca",
        "O",
        "Y"
    ],
    "structure": {
        "@module": "pymatgen.core.structure",
        "@class": "Structure",
        "charge": null,
        "lattice": {
            "matrix": [
                [
                    10.38654107,
                    0.0,
                    0.0
                ],
                [
                    0.0,
                    3.55786618,
                    0.0
                ],
                [
                    0.0,
                    0.0,
                    9.5781113
                ]
            ],
            "a": 10.38654107,
            "b": 3.55786618,
            "c": 9.5781113,
            "alpha": 90.0,
            "beta": 90.0,
            "gamma": 90.0,
            "volume": 353.9487893825358
        },
        "sites": [
            {
                "species": [
                    {
                        "element": "Ca",
                        "occu": 1
                    }
                ],
                "abc": [
                    0.0834304,
                    0.25,
                    0.67122168
                ],
                "xyz": [
                    0.866553276086528,
                    0.889466545,
                    6.429035958012984
                ],
                "label": "Ca",
                "properties": {}
            },
            {
                "species": [
                    {
                        "element": "Ca",
                        "occu": 1
                    }
                ],
                "abc": [
                    0.9165696,
                    0.75,
                    0.32877832
                ],
                "xyz": [
                    9.519987793913472,
                    2.668399635,
                    3.149075341987016
                ],
                "label": "Ca",
                "properties": {}
            },
            {
                "species": [
                    {
                        "element": "Ca",
                        "occu": 1
                    }
                ],
                "abc": [
                    0.4165696,
                    0.75,
                    0.17122168
                ],
                "xyz": [
                    4.3267172589134715,
                    2.668399635,
                    1.6399803080129838
                ],
                "label": "Ca",
                "properties": {}
            },
            {
                "species": [
                    {
                        "element": "Ca",
                        "occu": 1
                    }
                ],
                "abc": [
                    0.5834304,
                    0.25,
                    0.82877832
                ],
                "xyz": [
                    6.059823811086528,
                    0.889466545,
                    7.938130991987015
                ],
                "label": "Ca",
                "properties": {}
            },
            {
                "species": [
                    {
                        "element": "Y",
                        "occu": 1
                    }
                ],
                "abc": [
                    0.11255643,
                    0.25,
                    0.0878687
                ],
                "xyz": [
                    1.16907198288758,
                    0.889466545,
                    0.8416161883863099
                ],
                "label": "Y",
                "properties": {}
            },
            {
                "species": [
                    {
                        "element": "Y",
                        "occu": 1
                    }
                ],
                "abc": [
                    0.88744357,
                    0.75,
                    0.9121313
                ],
                "xyz": [
                    9.21746908711242,
                    2.668399635,
                    8.73649511161369
                ],
                "label": "Y",
                "properties": {}
            },
            {
                "species": [
                    {
                        "element": "Y",
                        "occu": 1
                    }
                ],
                "abc": [
                    0.38744357,
                    0.75,
                    0.5878687
                ],
                "xyz": [
                    4.02419855211242,
                    2.668399635,
                    5.63067183838631
                ],
                "label": "Y",
                "properties": {}
            },
            {
                "species": [
                    {
                        "element": "Y",
                        "occu": 1
                    }
                ],
                "abc": [
                    0.61255643,
                    0.25,
                    0.4121313
                ],
                "xyz": [
                    6.362342517887581,
                    0.889466545,
                    3.9474394616136896
                ],
                "label": "Y",
                "properties": {}
            },
            {
                "species": [
                    {
                        "element": "B",
                        "occu": 1
                    }
                ],
                "abc": [
                    0.19997126,
                    0.25,
                    0.36802777
                ],
                "xyz": [
                    2.0770097048096483,
                    0.889466545,
                    3.5250109425508005
                ],
                "label": "B",
                "properties": {}
            },
            {
                "species": [
                    {
                        "element": "B",
                        "occu": 1
                    }
                ],
                "abc": [
                    0.80002874,
                    0.75,
                    0.63197223
                ],
                "xyz": [
                    8.309531365190352,
                    2.668399635,
                    6.053100357449199
                ],
                "label": "B",
                "properties": {}
            },
            {
                "species": [
                    {
                        "element": "B",
                        "occu": 1
                    }
                ],
                "abc": [
                    0.30002874,
                    0.75,
                    0.86802777
                ],
                "xyz": [
                    3.116260830190352,
                    2.668399635,
                    8.3140665925508
                ],
                "label": "B",
                "properties": {}
            },
            {
                "species": [
                    {
                        "element": "B",
                        "occu": 1
                    }
                ],
                "abc": [
                    0.69997126,
                    0.25,
                    0.13197223
                ],
                "xyz": [
                    7.270280239809648,
                    0.889466545,
                    1.264044707449199
                ],
                "label": "B",
                "properties": {}
            },
            {
                "species": [
                    {
                        "element": "O",
                        "occu": 1
                    }
                ],
                "abc": [
                    0.25089896,
                    0.25,
                    0.50148354
                ],
                "xyz": [
                    2.605972352460287,
                    0.889466545,
                    4.803265161238001
                ],
                "label": "O",
                "properties": {}
            },
            {
                "species": [
                    {
                        "element": "O",
                        "occu": 1
                    }
                ],
                "abc": [
                    0.74910104,
                    0.75,
                    0.49851646
                ],
                "xyz": [
                    7.780568717539713,
                    2.668399635,
                    4.774846138761998
                ],
                "label": "O",
                "properties": {}
            },
            {
                "species": [
                    {
                        "element": "O",
                        "occu": 1
                    }
                ],
                "abc": [
                    0.24910104,
                    0.75,
                    0.00148354
                ],
                "xyz": [
                    2.5872981825397128,
                    2.668399635,
                    0.014209511238002
                ],
                "label": "O",
                "properties": {}
            },
            {
                "species": [
                    {
                        "element": "O",
                        "occu": 1
                    }
                ],
                "abc": [
                    0.75089896,
                    0.25,
                    0.99851646
                ],
                "xyz": [
                    7.799242887460287,
                    0.889466545,
                    9.563901788761997
                ],
                "label": "O",
                "properties": {}
            },
            {
                "species": [
                    {
                        "element": "O",
                        "occu": 1
                    }
                ],
                "abc": [
                    0.27747815,
                    0.25,
                    0.24934068
                ],
                "xyz": [
                    2.8820382010026204,
                    0.889466545,
                    2.388212784657684
                ],
                "label": "O",
                "properties": {}
            },
            {
                "species": [
                    {
                        "element": "O",
                        "occu": 1
                    }
                ],
                "abc": [
                    0.72252185,
                    0.75,
                    0.75065932
                ],
                "xyz": [
                    7.504502868997379,
                    2.668399635,
                    7.189898515342316
                ],
                "label": "O",
                "properties": {}
            },
            {
                "species": [
                    {
                        "element": "O",
                        "occu": 1
                    }
                ],
                "abc": [
                    0.22252185,
                    0.75,
                    0.74934068
                ],
                "xyz": [
                    2.3112323339973795,
                    2.668399635,
                    7.177268434657684
                ],
                "label": "O",
                "properties": {}
            },
            {
                "species": [
                    {
                        "element": "O",
                        "occu": 1
                    }
                ],
                "abc": [
                    0.77747815,
                    0.25,
                    0.25065932
                ],
                "xyz": [
                    8.07530873600262,
                    0.889466545,
                    2.400842865342316
                ],
                "label": "O",
                "properties": {}
            },
            {
                "species": [
                    {
                        "element": "O",
                        "occu": 1
                    }
                ],
                "abc": [
                    0.06672556,
                    0.25,
                    0.34893475
                ],
                "xyz": [
                    0.6930477693587492,
                    0.889466545,
                    3.3421358719376753
                ],
                "label": "O",
                "properties": {}
            },
            {
                "species": [
                    {
                        "element": "O",
                        "occu": 1
                    }
                ],
                "abc": [
                    0.93327444,
                    0.75,
                    0.65106525
                ],
                "xyz": [
                    9.69349330064125,
                    2.668399635,
                    6.235975428062325
                ],
                "label": "O",
                "properties": {}
            },
            {
                "species": [
                    {
                        "element": "O",
                        "occu": 1
                    }
                ],
                "abc": [
                    0.43327444,
                    0.75,
                    0.84893475
                ],
                "xyz": [
                    4.500222765641251,
                    2.668399635,
                    8.131191521937675
                ],
                "label": "O",
                "properties": {}
            },
            {
                "species": [
                    {
                        "element": "O",
                        "occu": 1
                    }
                ],
                "abc": [
                    0.56672556,
                    0.25,
                    0.15106525
                ],
                "xyz": [
                    5.886318304358749,
                    0.889466545,
                    1.446919778062325
                ],
                "label": "O",
                "properties": {}
            },
            {
                "species": [
                    {
                        "element": "O",
                        "occu": 1
                    }
                ],
                "abc": [
                    0.50702575,
                    0.25,
                    0.61374945
                ],
                "xyz": [
                    5.266243775922553,
                    0.889466545,
                    5.878560542413785
                ],
                "label": "O",
                "properties": {}
            },
            {
                "species": [
                    {
                        "element": "O",
                        "occu": 1
                    }
                ],
                "abc": [
                    0.49297425,
                    0.75,
                    0.38625055
                ],
                "xyz": [
                    5.120297294077448,
                    2.668399635,
                    3.699550757586215
                ],
                "label": "O",
                "properties": {}
            },
            {
                "species": [
                    {
                        "element": "O",
                        "occu": 1
                    }
                ],
                "abc": [
                    0.99297425,
                    0.75,
                    0.11374945
                ],
                "xyz": [
                    10.313567829077448,
                    2.668399635,
                    1.089504892413785
                ],
                "label": "O",
                "properties": {}
            },
            {
                "species": [
                    {
                        "element": "O",
                        "occu": 1
                    }
                ],
                "abc": [
                    0.00702575,
                    0.25,
                    0.88625055
                ],
                "xyz": [
                    0.0729732409225525,
                    0.889466545,
                    8.488606407586214
                ],
                "label": "O",
                "properties": {}
            }
        ]
    },
    "spacegroup": {
        "source": "spglib",
        "symbol": "Pnma",
        "number": 62,
        "point_group": "mmm",
        "crystal_system": "orthorhombic",
        "hall": "-P 2ac 2n"
    },
    "dielectric": {
        "epsilon_ionic": [
            [
                5.48888925,
                -2e-08,
                -0.0
            ],
            [
                -2e-08,
                8.12897549,
                -0.0
            ],
            [
                -0.0,
                -0.0,
                7.83464702
            ]
        ],
        "epsilon_ionic_avg": 7.150837253333333,
        "epsilon_ionic_eig": [
            5.48888925,
            8.12897549,
            7.83464702
        ],
        "epsilon_electronic": [
            [
                3.38334856,
                0.0,
                0.0
            ],
            [
                0.0,
                3.26828941,
                -0.0
            ],
            [
                0.0,
                0.0,
                3.4685621
            ]
        ],
        "epsilon_electronic_avg": 3.373400023333333,
        "epsilon_electronic_eig": [
            3.38334856,
            3.26828941,
            3.4685621
        ]
    },
    "phonon": {
        "lowest_freq": -0.07054785424632841,
        "frequency": [
            -0.07054785424632841,
            -0.06740671103577547,
            -0.051541467006992546,
            2.256081211400257,
            3.20605903871837,
            3.3248380348174824,
            3.3277681114360886,
            3.6442968581555677,
            3.7335844172482533,
            3.783056084649364,
            3.9391839451096837,
            4.2435762210181505,
            4.466541914460061,
            4.495410593513338,
            4.509859199531505,
            4.8882506954373195,
            5.063047053367358,
            5.104663872710374,
            5.369576430357127,
            5.717313350989152,
            5.816416114657406,
            5.828746553424682,
            5.842562804486772,
            6.214435209720083,
            6.3014380269395796,
            6.379553035756522,
            6.515547110737374,
            6.668689444948362,
            6.848637557526947,
            7.071155820455546,
            7.366634686855688,
            7.385278838302801,
            7.554151260685697,
            7.564883277709671,
            7.635441166880718,
            7.671687364305672,
            7.690394470362523,
            8.07884227424384,
            8.162237297116219,
            8.508252903965737,
            9.087685610563067,
            9.23648274995533,
            9.393137103394292,
            9.468168825901191,
            9.578983848570587,
            9.746325387046195,
            9.837781081306476,
            11.116792498940454,
            11.913811378040252,
            12.082796628135704,
            12.884057266028837,
            12.928645734554696,
            13.967009250962628,
            14.003290022954014,
            14.22322042168963,
            14.22493092141173,
            14.672090681745432,
            15.597750711155486,
            15.965772331601942,
            16.263554743947953,
            17.145636649373362,
            17.149398889573863,
            17.310233268966027,
            17.313473729854177,
            18.010932580151714,
            18.22901730990228,
            18.241605410587912,
            18.28840791832243,
            21.062261711284986,
            21.06646548574048,
            21.067053783650522,
            21.067410223169333,
            26.932485759188364,
            26.994897921769617,
            27.019299656718005,
            27.040425230562505,
            34.8889674610766,
            35.43574748986168,
            36.45408377232878,
            37.21278232471527,
            37.33093903676883,
            37.56397706660313,
            39.137328859715105,
            39.70913165680156
        ]
    },
    "born_effective_charge": {
        "avg_abs_trace": 2.3020492857142854,
        "tensors": [
            [
                [
                    2.56955,
                    -0.0,
                    -0.27722
                ],
                [
                    2e-05,
                    2.31457,
                    5e-05
                ],
                [
                    -0.36259,
                    -0.0,
                    2.49426
                ]
            ],
            [
                [
                    2.56962,
                    -0.0,
                    -0.27716
                ],
                [
                    -2e-05,
                    2.31457,
                    -5e-05
                ],
                [
                    -0.36257,
                    -0.0,
                    2.49419
                ]
            ],
            [
                [
                    2.56962,
                    0.0,
                    0.27716
                ],
                [
                    -2e-05,
                    2.31457,
                    5e-05
                ],
                [
                    0.36259,
                    -0.0,
                    2.49426
                ]
            ],
            [
                [
                    2.56955,
                    0.0,
                    0.27722
                ],
                [
                    2e-05,
                    2.31457,
                    -5e-05
                ],
                [
                    0.36257,
                    -0.0,
                    2.49419
                ]
            ],
            [
                [
                    3.28491,
                    -0.0,
                    0.4329
                ],
                [
                    0.00033,
                    4.02574,
                    -9e-05
                ],
                [
                    0.35892,
                    -0.0,
                    3.40518
                ]
            ],
            [
                [
                    3.28467,
                    0.0,
                    0.43299
                ],
                [
                    -0.00033,
                    4.02574,
                    9e-05
                ],
                [
                    0.35867,
                    -0.0,
                    3.40454
                ]
            ],
            [
                [
                    3.28467,
                    0.0,
                    -0.43299
                ],
                [
                    -0.00033,
                    4.02574,
                    -9e-05
                ],
                [
                    -0.35892,
                    -0.0,
                    3.40518
                ]
            ],
            [
                [
                    3.28491,
                    0.0,
                    -0.4329
                ],
                [
                    0.00033,
                    4.02574,
                    9e-05
                ],
                [
                    -0.35867,
                    -0.0,
                    3.40454
                ]
            ],
            [
                [
                    2.73908,
                    -0.0,
                    0.44584
                ],
                [
                    -3e-05,
                    0.38943,
                    -5e-05
                ],
                [
                    0.29021,
                    -0.0,
                    2.94923
                ]
            ],
            [
                [
                    2.73906,
                    -0.0,
                    0.44586
                ],
                [
                    3e-05,
                    0.38943,
                    5e-05
                ],
                [
                    0.2903,
                    -0.0,
                    2.94927
                ]
            ],
            [
                [
                    2.73906,
                    0.0,
                    -0.44586
                ],
                [
                    3e-05,
                    0.38943,
                    -5e-05
                ],
                [
                    -0.29021,
                    -0.0,
                    2.94923
                ]
            ],
            [
                [
                    2.73908,
                    0.0,
                    -0.44584
                ],
                [
                    -3e-05,
                    0.38943,
                    5e-05
                ],
                [
                    -0.2903,
                    -0.0,
                    2.94927
                ]
            ],
            [
                [
                    -1.92107,
                    0.0,
                    -0.64886
                ],
                [
                    -8e-05,
                    -1.53625,
                    -1e-05
                ],
                [
                    -0.51103,
                    -0.0,
                    -2.4898
                ]
            ],
            [
                [
                    -1.92095,
                    -0.0,
                    -0.6487
                ],
                [
                    8e-05,
                    -1.53625,
                    1e-05
                ],
                [
                    -0.51114,
                    -0.0,
                    -2.48963
                ]
            ],
            [
                [
                    -1.92095,
                    0.0,
                    0.6487
                ],
                [
                    8e-05,
                    -1.53625,
                    -1e-05
                ],
                [
                    0.51103,
                    -0.0,
                    -2.4898
                ]
            ],
            [
                [
                    -1.92107,
                    0.0,
                    0.64886
                ],
                [
                    -8e-05,
                    -1.53625,
                    1e-05
                ],
                [
                    0.51114,
                    -0.0,
                    -2.48963
                ]
            ],
            [
                [
                    -2.10001,
                    0.0,
                    0.16267
                ],
                [
                    -0.00016,
                    -1.26031,
                    6e-05
                ],
                [
                    0.13137,
                    -0.0,
                    -2.26901
                ]
            ],
            [
                [
                    -2.1,
                    0.0,
                    0.16276
                ],
                [
                    0.00016,
                    -1.26031,
                    -6e-05
                ],
                [
                    0.13149,
                    -0.0,
                    -2.26898
                ]
            ],
            [
                [
                    -2.1,
                    0.0,
                    -0.16276
                ],
                [
                    0.00016,
                    -1.26031,
                    6e-05
                ],
                [
                    -0.13137,
                    -0.0,
                    -2.26901
                ]
            ],
            [
                [
                    -2.10001,
                    0.0,
                    -0.16267
                ],
                [
                    -0.00016,
                    -1.26031,
                    -6e-05
                ],
                [
                    -0.13149,
                    -0.0,
                    -2.26898
                ]
            ],
            [
                [
                    -2.58865,
                    0.0,
                    -0.23321
                ],
                [
                    0.00021,
                    -1.2951,
                    1e-05
                ],
                [
                    -0.22362,
                    0.0,
                    -1.80547
                ]
            ],
            [
                [
                    -2.58844,
                    0.0,
                    -0.23314
                ],
                [
                    -0.00021,
                    -1.2951,
                    -1e-05
                ],
                [
                    -0.22339,
                    0.0,
                    -1.80552
                ]
            ],
            [
                [
                    -2.58844,
                    -0.0,
                    0.23314
                ],
                [
                    -0.00021,
                    -1.2951,
                    1e-05
                ],
                [
                    0.22362,
                    0.0,
                    -1.80547
                ]
            ],
            [
                [
                    -2.58865,
                    0.0,
                    0.23321
                ],
                [
                    0.00021,
                    -1.2951,
                    -1e-05
                ],
                [
                    0.22339,
                    0.0,
                    -1.80552
                ]
            ],
            [
                [
                    -1.98391,
                    0.0,
                    0.10977
                ],
                [
                    0.00074,
                    -2.63808,
                    0.00013
                ],
                [
                    0.06821,
                    -0.0,
                    -2.28418
                ]
            ],
            [
                [
                    -1.98388,
                    0.0,
                    0.10977
                ],
                [
                    -0.00074,
                    -2.63808,
                    -0.00013
                ],
                [
                    0.06826,
                    -0.0,
                    -2.28405
                ]
            ],
            [
                [
                    -1.98388,
                    0.0,
                    -0.10977
                ],
                [
                    -0.00074,
                    -2.63808,
                    0.00013
                ],
                [
                    -0.06821,
                    -0.0,
                    -2.28418
                ]
            ],
            [
                [
                    -1.98391,
                    0.0,
                    -0.10977
                ],
                [
                    0.00074,
                    -2.63808,
                    -0.00013
                ],
                [
                    -0.06826,
                    -0.0,
                    -2.28405
                ]
            ]
        ]
    },
    "band_gap": 4.3263,
    "is_direct": true,
    "formula": "CaYBO4"
}