{
    "mp_id": "mp-1100897",
    "nelements": 3,
    "nsites": 29,
    "elements": [
        "O",
        "Y",
        "Zr"
    ],
    "structure": {
        "@module": "pymatgen.core.structure",
        "@class": "Structure",
        "charge": null,
        "lattice": {
            "matrix": [
                [
                    3.63488586,
                    0.0,
                    0.0
                ],
                [
                    0.0,
                    3.63488586,
                    0.0
                ],
                [
                    0.0,
                    0.0,
                    25.94293274
                ]
            ],
            "a": 3.63488586,
            "b": 3.63488586,
            "c": 25.94293274,
            "alpha": 90.0,
            "beta": 90.0,
            "gamma": 90.0,
            "volume": 342.7682804029562
        },
        "sites": [
            {
                "species": [
                    {
                        "element": "Y",
                        "occu": 1
                    }
                ],
                "abc": [
                    0.5,
                    0.0,
                    0.44141949
                ],
                "xyz": [
                    1.81744293,
                    0.0,
                    11.451716139195103
                ],
                "label": "Y",
                "properties": {}
            },
            {
                "species": [
                    {
                        "element": "Y",
                        "occu": 1
                    }
                ],
                "abc": [
                    0.0,
                    0.5,
                    0.55858051
                ],
                "xyz": [
                    0.0,
                    1.81744293,
                    14.491216600804897
                ],
                "label": "Y",
                "properties": {}
            },
            {
                "species": [
                    {
                        "element": "Zr",
                        "occu": 1
                    }
                ],
                "abc": [
                    0.5,
                    0.0,
                    0.65478565
                ],
                "xyz": [
                    1.81744293,
                    0.0,
                    16.98706007706718
                ],
                "label": "Zr",
                "properties": {}
            },
            {
                "species": [
                    {
                        "element": "Zr",
                        "occu": 1
                    }
                ],
                "abc": [
                    0.0,
                    0.5,
                    0.75369711
                ],
                "xyz": [
                    0.0,
                    1.81744293,
                    19.55311343106238
                ],
                "label": "Zr",
                "properties": {}
            },
            {
                "species": [
                    {
                        "element": "Zr",
                        "occu": 1
                    }
                ],
                "abc": [
                    0.5,
                    0.0,
                    0.85234617
                ],
                "xyz": [
                    1.81744293,
                    0.0,
                    22.112359359506605
                ],
                "label": "Zr",
                "properties": {}
            },
            {
                "species": [
                    {
                        "element": "Zr",
                        "occu": 1
                    }
                ],
                "abc": [
                    0.0,
                    0.5,
                    0.95080689
                ],
                "xyz": [
                    0.0,
                    1.81744293,
                    24.666719195998578
                ],
                "label": "Zr",
                "properties": {}
            },
            {
                "species": [
                    {
                        "element": "Zr",
                        "occu": 1
                    }
                ],
                "abc": [
                    0.5,
                    0.0,
                    0.04919311
                ],
                "xyz": [
                    1.81744293,
                    0.0,
                    1.2762135440014213
                ],
                "label": "Zr",
                "properties": {}
            },
            {
                "species": [
                    {
                        "element": "Zr",
                        "occu": 1
                    }
                ],
                "abc": [
                    0.0,
                    0.5,
                    0.14765383
                ],
                "xyz": [
                    0.0,
                    1.81744293,
                    3.8305733804933944
                ],
                "label": "Zr",
                "properties": {}
            },
            {
                "species": [
                    {
                        "element": "Zr",
                        "occu": 1
                    }
                ],
                "abc": [
                    0.5,
                    0.0,
                    0.24630289
                ],
                "xyz": [
                    1.81744293,
                    0.0,
                    6.389819308937619
                ],
                "label": "Zr",
                "properties": {}
            },
            {
                "species": [
                    {
                        "element": "Zr",
                        "occu": 1
                    }
                ],
                "abc": [
                    0.0,
                    0.5,
                    0.34521435
                ],
                "xyz": [
                    0.0,
                    1.81744293,
                    8.95587266293282
                ],
                "label": "Zr",
                "properties": {}
            },
            {
                "species": [
                    {
                        "element": "O",
                        "occu": 1
                    }
                ],
                "abc": [
                    0.0,
                    0.0,
                    0.0
                ],
                "xyz": [
                    0.0,
                    0.0,
                    0.0
                ],
                "label": "O",
                "properties": {}
            },
            {
                "species": [
                    {
                        "element": "O",
                        "occu": 1
                    }
                ],
                "abc": [
                    0.5,
                    0.5,
                    0.10026008
                ],
                "xyz": [
                    1.81744293,
                    1.81744293,
                    2.6010405119470192
                ],
                "label": "O",
                "properties": {}
            },
            {
                "species": [
                    {
                        "element": "O",
                        "occu": 1
                    }
                ],
                "abc": [
                    0.0,
                    0.0,
                    0.19361961
                ],
                "xyz": [
                    0.0,
                    0.0,
                    5.023060519375031
                ],
                "label": "O",
                "properties": {}
            },
            {
                "species": [
                    {
                        "element": "O",
                        "occu": 1
                    }
                ],
                "abc": [
                    0.5,
                    0.5,
                    0.30067629
                ],
                "xyz": [
                    1.81744293,
                    1.81744293,
                    7.800424767982735
                ],
                "label": "O",
                "properties": {}
            },
            {
                "species": [
                    {
                        "element": "O",
                        "occu": 1
                    }
                ],
                "abc": [
                    0.0,
                    0.0,
                    0.3887093
                ],
                "xyz": [
                    0.0,
                    0.0,
                    10.084259225312481
                ],
                "label": "O",
                "properties": {}
            },
            {
                "species": [
                    {
                        "element": "O",
                        "occu": 1
                    }
                ],
                "abc": [
                    0.0,
                    0.0,
                    0.5
                ],
                "xyz": [
                    0.0,
                    0.0,
                    12.97146637
                ],
                "label": "O",
                "properties": {}
            },
            {
                "species": [
                    {
                        "element": "O",
                        "occu": 1
                    }
                ],
                "abc": [
                    0.0,
                    0.0,
                    0.6112907
                ],
                "xyz": [
                    0.0,
                    0.0,
                    15.858673514687517
                ],
                "label": "O",
                "properties": {}
            },
            {
                "species": [
                    {
                        "element": "O",
                        "occu": 1
                    }
                ],
                "abc": [
                    0.5,
                    0.5,
                    0.59929932
                ],
                "xyz": [
                    1.81744293,
                    1.81744293,
                    15.547581949887736
                ],
                "label": "O",
                "properties": {}
            },
            {
                "species": [
                    {
                        "element": "O",
                        "occu": 1
                    }
                ],
                "abc": [
                    0.5,
                    0.5,
                    0.69932371
                ],
                "xyz": [
                    1.81744293,
                    1.81744293,
                    18.142507972017267
                ],
                "label": "O",
                "properties": {}
            },
            {
                "species": [
                    {
                        "element": "O",
                        "occu": 1
                    }
                ],
                "abc": [
                    0.0,
                    0.0,
                    0.80638039
                ],
                "xyz": [
                    0.0,
                    0.0,
                    20.919872220624967
                ],
                "label": "O",
                "properties": {}
            },
            {
                "species": [
                    {
                        "element": "O",
                        "occu": 1
                    }
                ],
                "abc": [
                    0.0,
                    0.0,
                    0.70899906
                ],
                "xyz": [
                    0.0,
                    0.0,
                    18.393514926303226
                ],
                "label": "O",
                "properties": {}
            },
            {
                "species": [
                    {
                        "element": "O",
                        "occu": 1
                    }
                ],
                "abc": [
                    0.5,
                    0.5,
                    0.79952219
                ],
                "xyz": [
                    1.81744293,
                    1.81744293,
                    20.741950399307502
                ],
                "label": "O",
                "properties": {}
            },
            {
                "species": [
                    {
                        "element": "O",
                        "occu": 1
                    }
                ],
                "abc": [
                    0.5,
                    0.5,
                    0.89973992
                ],
                "xyz": [
                    1.81744293,
                    1.81744293,
                    23.34189222805298
                ],
                "label": "O",
                "properties": {}
            },
            {
                "species": [
                    {
                        "element": "O",
                        "occu": 1
                    }
                ],
                "abc": [
                    0.0,
                    0.0,
                    0.9033304
                ],
                "xyz": [
                    0.0,
                    0.0,
                    23.435039809197296
                ],
                "label": "O",
                "properties": {}
            },
            {
                "species": [
                    {
                        "element": "O",
                        "occu": 1
                    }
                ],
                "abc": [
                    0.5,
                    0.5,
                    0.0
                ],
                "xyz": [
                    1.81744293,
                    1.81744293,
                    0.0
                ],
                "label": "O",
                "properties": {}
            },
            {
                "species": [
                    {
                        "element": "O",
                        "occu": 1
                    }
                ],
                "abc": [
                    0.0,
                    0.0,
                    0.0966696
                ],
                "xyz": [
                    0.0,
                    0.0,
                    2.507892930802704
                ],
                "label": "O",
                "properties": {}
            },
            {
                "species": [
                    {
                        "element": "O",
                        "occu": 1
                    }
                ],
                "abc": [
                    0.5,
                    0.5,
                    0.20047781
                ],
                "xyz": [
                    1.81744293,
                    1.81744293,
                    5.2009823406925
                ],
                "label": "O",
                "properties": {}
            },
            {
                "species": [
                    {
                        "element": "O",
                        "occu": 1
                    }
                ],
                "abc": [
                    0.0,
                    0.0,
                    0.29100094
                ],
                "xyz": [
                    0.0,
                    0.0,
                    7.549417813696775
                ],
                "label": "O",
                "properties": {}
            },
            {
                "species": [
                    {
                        "element": "O",
                        "occu": 1
                    }
                ],
                "abc": [
                    0.5,
                    0.5,
                    0.40070068
                ],
                "xyz": [
                    1.81744293,
                    1.81744293,
                    10.395350790112262
                ],
                "label": "O",
                "properties": {}
            }
        ]
    },
    "spacegroup": {
        "source": "spglib",
        "symbol": "P-4m2",
        "number": 115,
        "point_group": "-42m",
        "crystal_system": "tetragonal",
        "hall": "P -4 -2"
    },
    "dielectric": {
        "epsilon_ionic": [
            [
                20.67761493,
                -0.0,
                -8.3e-07
            ],
            [
                -0.0,
                20.67778586,
                5.8e-07
            ],
            [
                -8.3e-07,
                5.8e-07,
                14.50333726
            ]
        ],
        "epsilon_ionic_avg": 18.61957934999999,
        "epsilon_ionic_eig": [
            14.503337259999828,
            20.677614930000104,
            20.677785860000046
        ],
        "epsilon_electronic": [
            [
                5.12989065,
                0.0,
                0.0
            ],
            [
                0.0,
                5.12989065,
                0.0
            ],
            [
                0.0,
                0.0,
                4.90241842
            ]
        ],
        "epsilon_electronic_avg": 5.054066573333333,
        "epsilon_electronic_eig": [
            5.12989065,
            5.12989065,
            4.90241842
        ]
    },
    "phonon": {
        "lowest_freq": -0.06297548803797465,
        "frequency": [
            -0.06297548803797465,
            -0.03950614447230384,
            -0.03950614447230384,
            1.2415329675169118,
            1.2415329675169118,
            1.3579374752474764,
            1.3579374752474764,
            2.0455155623869556,
            2.2781502628673613,
            2.2781502628673613,
            2.557277664773157,
            2.557277664773157,
            2.8417405974537013,
            3.290341428474639,
            3.290341428474639,
            3.6737102617856614,
            4.066217095894306,
            4.066217095894306,
            4.437748934746392,
            4.437748934746392,
            4.61210445017618,
            4.61210445017618,
            4.8141157433839235,
            4.8141157433839235,
            5.024348791266188,
            6.121604828410045,
            6.209698434397812,
            6.209698434397812,
            6.789982454277184,
            6.789982454277184,
            6.94995808086421,
            7.022553544033628,
            7.022553544033628,
            7.603909399808827,
            7.603909399808827,
            7.664273954635948,
            7.730285153483493,
            7.730285153483493,
            8.35744580853043,
            8.583559186350088,
            8.583920274007001,
            8.583920274007001,
            9.214958197314568,
            9.535006814720495,
            9.535006814720495,
            9.763192281765829,
            9.813962029598652,
            10.273305859346895,
            10.37566875893317,
            10.37566875893317,
            11.19020270184045,
            11.19020270184045,
            11.242404109690046,
            12.641121328608751,
            13.22170029721449,
            13.22170029721449,
            14.336688175411282,
            14.856243747456361,
            14.856243747456361,
            15.111080191264112,
            15.183408498748838,
            15.183408498748838,
            15.272147599115458,
            15.272147599115458,
            15.779902844174792,
            15.779902844174792,
            16.10454959413082,
            16.15494847333461,
            16.39725737328061,
            16.39725737328061,
            16.56586414873211,
            16.971005886175163,
            16.971005886175163,
            17.475028609435043,
            17.475028609435043,
            17.902551330514523,
            17.902551330514523,
            18.973463032812152,
            19.09325497503294,
            19.348089151370754,
            19.348089151370754,
            19.401504227827473,
            19.449983179715748,
            19.495487869150786,
            19.577625228254856,
            19.68044672380735,
            19.82225986604526
        ]
    },
    "born_effective_charge": {
        "avg_abs_trace": 3.430016666666666,
        "tensors": [
            [
                [
                    3.85876,
                    0.0,
                    -0.0
                ],
                [
                    0.0,
                    3.61529,
                    0.0
                ],
                [
                    0.0,
                    0.0,
                    3.90737
                ]
            ],
            [
                [
                    3.61528,
                    0.0,
                    -0.0
                ],
                [
                    0.0,
                    3.85879,
                    0.0
                ],
                [
                    0.0,
                    0.0,
                    3.90854
                ]
            ],
            [
                [
                    5.57181,
                    0.0,
                    -0.0
                ],
                [
                    0.0,
                    5.33812,
                    0.0
                ],
                [
                    0.0,
                    0.0,
                    4.92671
                ]
            ],
            [
                [
                    5.27243,
                    0.0,
                    -0.0
                ],
                [
                    0.0,
                    5.55443,
                    0.0
                ],
                [
                    0.0,
                    0.0,
                    4.96028
                ]
            ],
            [
                [
                    5.57271,
                    0.0,
                    0.0
                ],
                [
                    0.0,
                    5.24243,
                    -0.0
                ],
                [
                    0.0,
                    0.0,
                    4.97918
                ]
            ],
            [
                [
                    5.22197,
                    0.0,
                    0.0
                ],
                [
                    0.0,
                    5.58844,
                    -0.0
                ],
                [
                    0.0,
                    0.0,
                    4.99268
                ]
            ],
            [
                [
                    5.58845,
                    0.0,
                    0.0
                ],
                [
                    0.0,
                    5.222,
                    -0.0
                ],
                [
                    0.0,
                    0.0,
                    4.9926
                ]
            ],
            [
                [
                    5.2424,
                    0.0,
                    0.0
                ],
                [
                    0.0,
                    5.57274,
                    -0.0
                ],
                [
                    0.0,
                    0.0,
                    4.9789
                ]
            ],
            [
                [
                    5.55444,
                    0.0,
                    -0.0
                ],
                [
                    0.0,
                    5.27246,
                    0.0
                ],
                [
                    0.0,
                    0.0,
                    4.96009
                ]
            ],
            [
                [
                    5.3381,
                    0.0,
                    -0.0
                ],
                [
                    0.0,
                    5.57182,
                    0.0
                ],
                [
                    0.0,
                    0.0,
                    4.9265
                ]
            ],
            [
                [
                    -2.71883,
                    0.0,
                    0.0
                ],
                [
                    0.0,
                    -2.71881,
                    -0.0
                ],
                [
                    0.0,
                    0.0,
                    -2.48949
                ]
            ],
            [
                [
                    -2.80766,
                    0.0,
                    -0.0
                ],
                [
                    0.0,
                    -2.55859,
                    0.0
                ],
                [
                    0.0,
                    0.0,
                    -2.48564
                ]
            ],
            [
                [
                    -2.48006,
                    0.0,
                    0.0
                ],
                [
                    0.0,
                    -2.95799,
                    -0.0
                ],
                [
                    0.0,
                    0.0,
                    -2.48187
                ]
            ],
            [
                [
                    -3.02138,
                    0.0,
                    -0.0
                ],
                [
                    0.0,
                    -2.35656,
                    0.0
                ],
                [
                    0.0,
                    0.0,
                    -2.45901
                ]
            ],
            [
                [
                    -2.24549,
                    0.0,
                    -0.0
                ],
                [
                    0.0,
                    -3.16791,
                    0.0
                ],
                [
                    0.0,
                    0.0,
                    -2.54003
                ]
            ],
            [
                [
                    -2.22641,
                    0.0,
                    -0.0
                ],
                [
                    0.0,
                    -2.22641,
                    0.0
                ],
                [
                    0.0,
                    0.0,
                    -3.32533
                ]
            ],
            [
                [
                    -3.16793,
                    0.0,
                    -0.0
                ],
                [
                    0.0,
                    -2.24549,
                    0.0
                ],
                [
                    0.0,
                    0.0,
                    -2.54017
                ]
            ],
            [
                [
                    -3.05171,
                    0.0,
                    0.0
                ],
                [
                    0.0,
                    -2.30842,
                    0.0
                ],
                [
                    0.0,
                    0.0,
                    -2.2075
                ]
            ],
            [
                [
                    -2.35655,
                    0.0,
                    -0.0
                ],
                [
                    0.0,
                    -3.02142,
                    0.0
                ],
                [
                    0.0,
                    0.0,
                    -2.45884
                ]
            ],
            [
                [
                    -2.95805,
                    0.0,
                    0.0
                ],
                [
                    0.0,
                    -2.48011,
                    0.0
                ],
                [
                    0.0,
                    0.0,
                    -2.48199
                ]
            ],
            [
                [
                    -2.38332,
                    0.0,
                    -0.0
                ],
                [
                    0.0,
                    -3.05781,
                    0.0
                ],
                [
                    0.0,
                    0.0,
                    -2.47671
                ]
            ],
            [
                [
                    -2.9249,
                    0.0,
                    -0.0
                ],
                [
                    0.0,
                    -2.45093,
                    -0.0
                ],
                [
                    0.0,
                    0.0,
                    -2.47794
                ]
            ],
            [
                [
                    -2.55858,
                    0.0,
                    0.0
                ],
                [
                    0.0,
                    -2.8077,
                    0.0
                ],
                [
                    0.0,
                    0.0,
                    -2.48575
                ]
            ],
            [
                [
                    -2.59298,
                    0.0,
                    0.0
                ],
                [
                    0.0,
                    -2.84445,
                    -0.0
                ],
                [
                    0.0,
                    0.0,
                    -2.48607
                ]
            ],
            [
                [
                    -2.68103,
                    0.0,
                    -0.0
                ],
                [
                    0.0,
                    -2.68108,
                    0.0
                ],
                [
                    0.0,
                    0.0,
                    -2.48811
                ]
            ],
            [
                [
                    -2.84442,
                    0.0,
                    0.0
                ],
                [
                    0.0,
                    -2.59297,
                    -0.0
                ],
                [
                    0.0,
                    0.0,
                    -2.4862
                ]
            ],
            [
                [
                    -2.45084,
                    0.0,
                    0.0
                ],
                [
                    0.0,
                    -2.92485,
                    0.0
                ],
                [
                    0.0,
                    0.0,
                    -2.47764
                ]
            ],
            [
                [
                    -3.0578,
                    0.0,
                    -0.0
                ],
                [
                    0.0,
                    -2.38334,
                    0.0
                ],
                [
                    0.0,
                    0.0,
                    -2.47684
                ]
            ],
            [
                [
                    -2.30841,
                    0.0,
                    -0.0
                ],
                [
                    0.0,
                    -3.05169,
                    -0.0
                ],
                [
                    0.0,
                    0.0,
                    -2.20772
                ]
            ]
        ]
    },
    "band_gap": 2.3823999999999996,
    "is_direct": false,
    "formula": "Y2Zr8O19"
}