{
    "mp_id": "mp-18996",
    "nelements": 3,
    "nsites": 24,
    "elements": [
        "O",
        "Tl",
        "V"
    ],
    "structure": {
        "@module": "pymatgen.core.structure",
        "@class": "Structure",
        "charge": null,
        "lattice": {
            "matrix": [
                [
                    4.99335393,
                    0.0,
                    -0.0001713
                ],
                [
                    0.0,
                    8.42185335,
                    0.0
                ],
                [
                    -1.08868785,
                    0.0,
                    7.6528748
                ]
            ],
            "a": 4.993353932938274,
            "b": 8.42185335,
            "c": 7.72992457526027,
            "alpha": 90.0,
            "beta": 98.09846137376424,
            "gamma": 90.0,
            "volume": 321.8270273026561
        },
        "sites": [
            {
                "species": [
                    {
                        "element": "Tl",
                        "occu": 1
                    }
                ],
                "abc": [
                    0.97222683,
                    0.75,
                    0.06973425
                ],
                "xyz": [
                    4.778753831728078,
                    6.316390012499999,
                    0.533500942065921
                ],
                "label": "Tl",
                "properties": {}
            },
            {
                "species": [
                    {
                        "element": "Tl",
                        "occu": 1
                    }
                ],
                "abc": [
                    0.02777317,
                    0.25,
                    0.93026575
                ],
                "xyz": [
                    -0.8740877517280793,
                    2.1054633375,
                    7.119202557934079
                ],
                "label": "Tl",
                "properties": {}
            },
            {
                "species": [
                    {
                        "element": "V",
                        "occu": 1
                    }
                ],
                "abc": [
                    0.55439122,
                    0.05419306,
                    0.31700092
                ],
                "xyz": [
                    2.423156527101672,
                    0.456406003907751,
                    2.4258733850288303
                ],
                "label": "V",
                "properties": {}
            },
            {
                "species": [
                    {
                        "element": "V",
                        "occu": 1
                    }
                ],
                "abc": [
                    0.44560878,
                    0.55419306,
                    0.68299908
                ],
                "xyz": [
                    1.4815095528983273,
                    4.6673326789077505,
                    5.22683011497117
                ],
                "label": "V",
                "properties": {}
            },
            {
                "species": [
                    {
                        "element": "V",
                        "occu": 1
                    }
                ],
                "abc": [
                    0.93324483,
                    0.75,
                    0.58736245
                ],
                "xyz": [
                    4.020567376671449,
                    6.316390012499999,
                    4.494851427231882
                ],
                "label": "V",
                "properties": {}
            },
            {
                "species": [
                    {
                        "element": "V",
                        "occu": 1
                    }
                ],
                "abc": [
                    0.06675517,
                    0.25,
                    0.41263755
                ],
                "xyz": [
                    -0.11590129667144938,
                    2.1054633375,
                    3.157852072768119
                ],
                "label": "V",
                "properties": {}
            },
            {
                "species": [
                    {
                        "element": "V",
                        "occu": 1
                    }
                ],
                "abc": [
                    0.44560878,
                    0.94580694,
                    0.68299908
                ],
                "xyz": [
                    1.4815095528983273,
                    7.965447346092248,
                    5.22683011497117
                ],
                "label": "V",
                "properties": {}
            },
            {
                "species": [
                    {
                        "element": "V",
                        "occu": 1
                    }
                ],
                "abc": [
                    0.55439122,
                    0.44580694,
                    0.31700092
                ],
                "xyz": [
                    2.423156527101672,
                    3.7545206710922487,
                    2.4258733850288303
                ],
                "label": "V",
                "properties": {}
            },
            {
                "species": [
                    {
                        "element": "O",
                        "occu": 1
                    }
                ],
                "abc": [
                    0.12096214,
                    0.59840163,
                    0.74054221
                ],
                "xyz": [
                    -0.2022125292889383,
                    5.03965077226096,
                    5.667256096430726
                ],
                "label": "O",
                "properties": {}
            },
            {
                "species": [
                    {
                        "element": "O",
                        "occu": 1
                    }
                ],
                "abc": [
                    0.87903786,
                    0.40159837,
                    0.25945779
                ],
                "xyz": [
                    4.106878609288938,
                    3.382202577739039,
                    1.9854474035692742
                ],
                "label": "O",
                "properties": {}
            },
            {
                "species": [
                    {
                        "element": "O",
                        "occu": 1
                    }
                ],
                "abc": [
                    0.12096214,
                    0.90159837,
                    0.74054221
                ],
                "xyz": [
                    -0.2022125292889383,
                    7.593129252739039,
                    5.667256096430726
                ],
                "label": "O",
                "properties": {}
            },
            {
                "species": [
                    {
                        "element": "O",
                        "occu": 1
                    }
                ],
                "abc": [
                    0.5863446,
                    0.065381,
                    0.83296564
                ],
                "xyz": [
                    2.020986541008804,
                    0.5506291938763499,
                    6.3744813147918915
                ],
                "label": "O",
                "properties": {}
            },
            {
                "species": [
                    {
                        "element": "O",
                        "occu": 1
                    }
                ],
                "abc": [
                    0.86818624,
                    0.25,
                    0.56262731
                ],
                "xyz": [
                    3.7226356570007395,
                    2.1054633375,
                    4.305567642187876
                ],
                "label": "O",
                "properties": {}
            },
            {
                "species": [
                    {
                        "element": "O",
                        "occu": 1
                    }
                ],
                "abc": [
                    0.13181376,
                    0.75,
                    0.43737269
                ],
                "xyz": [
                    0.18203042299926026,
                    6.316390012499999,
                    3.347135857812124
                ],
                "label": "O",
                "properties": {}
            },
            {
                "species": [
                    {
                        "element": "O",
                        "occu": 1
                    }
                ],
                "abc": [
                    0.31308554,
                    0.41285677,
                    0.49453578
                ],
                "xyz": [
                    1.0249518165088993,
                    3.477019171494679,
                    3.784566776907342
                ],
                "label": "O",
                "properties": {}
            },
            {
                "species": [
                    {
                        "element": "O",
                        "occu": 1
                    }
                ],
                "abc": [
                    0.68691446,
                    0.58714323,
                    0.50546422
                ],
                "xyz": [
                    2.879714263491101,
                    4.94483417850532,
                    3.868136723092658
                ],
                "label": "O",
                "properties": {}
            },
            {
                "species": [
                    {
                        "element": "O",
                        "occu": 1
                    }
                ],
                "abc": [
                    0.68691446,
                    0.91285677,
                    0.50546422
                ],
                "xyz": [
                    2.879714263491101,
                    7.687945846494679,
                    3.868136723092658
                ],
                "label": "O",
                "properties": {}
            },
            {
                "species": [
                    {
                        "element": "O",
                        "occu": 1
                    }
                ],
                "abc": [
                    0.31308554,
                    0.08714323,
                    0.49453578
                ],
                "xyz": [
                    1.0249518165088993,
                    0.7339075035053204,
                    3.784566776907342
                ],
                "label": "O",
                "properties": {}
            },
            {
                "species": [
                    {
                        "element": "O",
                        "occu": 1
                    }
                ],
                "abc": [
                    0.4136554,
                    0.934619,
                    0.16703436
                ],
                "xyz": [
                    1.8836795389911956,
                    7.871224156123649,
                    1.278222185208108
                ],
                "label": "O",
                "properties": {}
            },
            {
                "species": [
                    {
                        "element": "O",
                        "occu": 1
                    }
                ],
                "abc": [
                    0.59753059,
                    0.75,
                    0.75904417
                ],
                "xyz": [
                    2.157319554379384,
                    6.316390012499999,
                    5.808767643689849
                ],
                "label": "O",
                "properties": {}
            },
            {
                "species": [
                    {
                        "element": "O",
                        "occu": 1
                    }
                ],
                "abc": [
                    0.5863446,
                    0.434619,
                    0.83296564
                ],
                "xyz": [
                    2.020986541008804,
                    3.6602974811236493,
                    6.3744813147918915
                ],
                "label": "O",
                "properties": {}
            },
            {
                "species": [
                    {
                        "element": "O",
                        "occu": 1
                    }
                ],
                "abc": [
                    0.87903786,
                    0.09840163,
                    0.25945779
                ],
                "xyz": [
                    4.106878609288938,
                    0.8287240972609604,
                    1.9854474035692742
                ],
                "label": "O",
                "properties": {}
            },
            {
                "species": [
                    {
                        "element": "O",
                        "occu": 1
                    }
                ],
                "abc": [
                    0.4136554,
                    0.565381,
                    0.16703436
                ],
                "xyz": [
                    1.8836795389911956,
                    4.76155586887635,
                    1.278222185208108
                ],
                "label": "O",
                "properties": {}
            },
            {
                "species": [
                    {
                        "element": "O",
                        "occu": 1
                    }
                ],
                "abc": [
                    0.40246941,
                    0.25,
                    0.24095583
                ],
                "xyz": [
                    1.7473465256206158,
                    2.1054633375,
                    1.8439358563101511
                ],
                "label": "O",
                "properties": {}
            }
        ]
    },
    "spacegroup": {
        "source": "spglib",
        "symbol": "P2_1/m",
        "number": 11,
        "point_group": "2/m",
        "crystal_system": "monoclinic",
        "hall": "-P 2yb"
    },
    "dielectric": {
        "epsilon_ionic": [
            [
                18.21769917,
                -3e-08,
                3.99637193
            ],
            [
                -3e-08,
                25.16920652,
                -4e-08
            ],
            [
                3.99637193,
                -4e-08,
                8.7851271
            ]
        ],
        "epsilon_ionic_avg": 17.390677596666674,
        "epsilon_ionic_eig": [
            7.319638101336299,
            19.683188168663722,
            25.169206520000003
        ],
        "epsilon_electronic": [
            [
                6.12636293,
                0.0,
                0.46661998
            ],
            [
                0.0,
                6.0338539,
                0.0
            ],
            [
                0.46661169,
                0.0,
                4.6837298
            ]
        ],
        "epsilon_electronic_avg": 5.614648876666667,
        "epsilon_electronic_eig": [
            6.264131881348033,
            4.545960848651967,
            6.0338539
        ]
    },
    "phonon": {
        "lowest_freq": -0.13844887274271295,
        "frequency": [
            -0.13844887274271295,
            -0.03561584660134178,
            -0.027291309317867635,
            0.8191167172512103,
            0.9739999271678244,
            1.0576358923817657,
            1.278796715027857,
            1.3694836539526678,
            1.845786151295263,
            2.1968342066087336,
            3.235027317090654,
            3.3267650236620963,
            3.611803589695557,
            3.9583659893992147,
            4.209022854023944,
            4.431998832438594,
            4.964962954111461,
            5.252812596208309,
            5.279391477302653,
            5.314207885673116,
            5.358472267408708,
            6.003212252494222,
            6.471662856898761,
            6.503299589538881,
            6.52147694773272,
            6.966775825360411,
            6.982573640494394,
            7.029259905188726,
            7.455249619393839,
            7.614467134323991,
            7.740184448559357,
            8.269161270696825,
            8.557927686006316,
            8.602828136726563,
            8.631365183638142,
            8.890043596438055,
            9.446229976865233,
            9.571009611961532,
            9.767651609346323,
            10.123543042624407,
            10.416518687768697,
            11.100501873495329,
            11.53179726597912,
            11.597151036408412,
            12.421747262074172,
            12.609702999357232,
            12.69682247794088,
            12.775441449375451,
            13.83498491751572,
            14.128277270852827,
            14.59074633492571,
            14.862247414189397,
            14.994717393902897,
            15.382732438200977,
            15.414423729913281,
            16.639344182577787,
            18.33135481236075,
            18.425997734162365,
            18.6549439591896,
            18.978521625583117,
            19.350951545723973,
            20.40452630100256,
            21.601770187095784,
            22.1485838233635,
            22.888000222117572,
            23.334926881144963,
            28.351298427754735,
            28.4086116841517,
            28.58432559327,
            28.903054807597616,
            29.70390402108617,
            29.784827578997177
        ]
    },
    "born_effective_charge": {
        "avg_abs_trace": 2.7665662500000003,
        "tensors": [
            [
                [
                    1.88275,
                    -0.0,
                    0.16247
                ],
                [
                    -9e-05,
                    1.67485,
                    -0.00022
                ],
                [
                    0.50792,
                    0.0,
                    2.61821
                ]
            ],
            [
                [
                    1.88288,
                    -0.0,
                    0.16234
                ],
                [
                    9e-05,
                    1.67485,
                    0.00022
                ],
                [
                    0.50784,
                    0.0,
                    2.61795
                ]
            ],
            [
                [
                    5.07056,
                    -0.07187,
                    -0.28137
                ],
                [
                    0.2986,
                    5.3798,
                    -1.6024
                ],
                [
                    0.24836,
                    -0.42287,
                    2.98365
                ]
            ],
            [
                [
                    5.07086,
                    0.07178,
                    -0.2813
                ],
                [
                    -0.2986,
                    5.3798,
                    1.6024
                ],
                [
                    0.2478,
                    0.42319,
                    2.98385
                ]
            ],
            [
                [
                    7.25219,
                    -0.0,
                    2.58822
                ],
                [
                    -0.00031,
                    6.51835,
                    -0.00024
                ],
                [
                    0.89782,
                    0.0,
                    2.98341
                ]
            ],
            [
                [
                    7.25238,
                    -0.0,
                    2.58815
                ],
                [
                    0.00031,
                    6.51835,
                    0.00024
                ],
                [
                    0.89607,
                    0.0,
                    2.98432
                ]
            ],
            [
                [
                    5.07086,
                    -0.07178,
                    -0.2813
                ],
                [
                    0.29809,
                    5.37923,
                    -1.60147
                ],
                [
                    0.2478,
                    -0.42319,
                    2.98385
                ]
            ],
            [
                [
                    5.07056,
                    0.07187,
                    -0.28137
                ],
                [
                    -0.29809,
                    5.37923,
                    1.60147
                ],
                [
                    0.24836,
                    0.42287,
                    2.98365
                ]
            ],
            [
                [
                    -3.59604,
                    1.3678,
                    -0.57022
                ],
                [
                    1.39469,
                    -2.01873,
                    0.24212
                ],
                [
                    -0.21108,
                    0.33374,
                    -1.25438
                ]
            ],
            [
                [
                    -3.59591,
                    1.36755,
                    -0.57055
                ],
                [
                    1.39374,
                    -2.01906,
                    0.243
                ],
                [
                    -0.21075,
                    0.33441,
                    -1.25428
                ]
            ],
            [
                [
                    -3.59604,
                    -1.3678,
                    -0.57022
                ],
                [
                    -1.39374,
                    -2.01906,
                    -0.243
                ],
                [
                    -0.21108,
                    -0.33374,
                    -1.25438
                ]
            ],
            [
                [
                    -1.08892,
                    -0.65174,
                    -0.70751
                ],
                [
                    -0.69734,
                    -1.75546,
                    -1.12637
                ],
                [
                    -0.5978,
                    -0.91526,
                    -1.50495
                ]
            ],
            [
                [
                    -1.73683,
                    -0.0,
                    0.62024
                ],
                [
                    -6e-05,
                    -0.77642,
                    -0.00021
                ],
                [
                    0.33103,
                    0.0,
                    -1.36493
                ]
            ],
            [
                [
                    -1.7363,
                    -0.0,
                    0.61946
                ],
                [
                    6e-05,
                    -0.77642,
                    0.00021
                ],
                [
                    0.33135,
                    0.0,
                    -1.365
                ]
            ],
            [
                [
                    -2.98453,
                    -1.6615,
                    -0.08521
                ],
                [
                    -1.64549,
                    -3.28624,
                    -2.04122
                ],
                [
                    -0.18808,
                    -1.07734,
                    -1.75979
                ]
            ],
            [
                [
                    -2.98458,
                    -1.66178,
                    -0.08533
                ],
                [
                    -1.64546,
                    -3.28619,
                    -2.04107
                ],
                [
                    -0.18851,
                    -1.07727,
                    -1.75998
                ]
            ],
            [
                [
                    -2.98458,
                    1.66178,
                    -0.08533
                ],
                [
                    1.64549,
                    -3.28624,
                    2.04122
                ],
                [
                    -0.18851,
                    1.07727,
                    -1.75998
                ]
            ],
            [
                [
                    -2.98453,
                    1.6615,
                    -0.08521
                ],
                [
                    1.64546,
                    -3.28619,
                    2.04107
                ],
                [
                    -0.18808,
                    1.07734,
                    -1.75979
                ]
            ],
            [
                [
                    -1.08884,
                    -0.65152,
                    -0.70704
                ],
                [
                    -0.69704,
                    -1.75591,
                    -1.12688
                ],
                [
                    -0.59812,
                    -0.91549,
                    -1.50499
                ]
            ],
            [
                [
                    -2.20113,
                    -0.0,
                    -0.08189
                ],
                [
                    0.00021,
                    -4.05421,
                    -0.0001
                ],
                [
                    -0.23794,
                    0.0,
                    -1.1661
                ]
            ],
            [
                [
                    -1.08892,
                    0.65174,
                    -0.70751
                ],
                [
                    0.69704,
                    -1.75591,
                    1.12688
                ],
                [
                    -0.5978,
                    0.91526,
                    -1.50495
                ]
            ],
            [
                [
                    -3.59591,
                    -1.36755,
                    -0.57055
                ],
                [
                    -1.39469,
                    -2.01873,
                    -0.24212
                ],
                [
                    -0.21075,
                    -0.33441,
                    -1.25428
                ]
            ],
            [
                [
                    -1.08884,
                    0.65152,
                    -0.70704
                ],
                [
                    0.69734,
                    -1.75546,
                    1.12637
                ],
                [
                    -0.59812,
                    0.91549,
                    -1.50499
                ]
            ],
            [
                [
                    -2.20116,
                    -0.0,
                    -0.08195
                ],
                [
                    -0.00021,
                    -4.05421,
                    0.0001
                ],
                [
                    -0.23772,
                    0.0,
                    -1.16611
                ]
            ]
        ]
    },
    "band_gap": 1.7773,
    "is_direct": true,
    "formula": "TlV3O8"
}