{
    "mp_id": "mp-18986",
    "nelements": 4,
    "nsites": 10,
    "elements": [
        "Ba",
        "Mg",
        "O",
        "W"
    ],
    "structure": {
        "@module": "pymatgen.core.structure",
        "@class": "Structure",
        "charge": null,
        "lattice": {
            "matrix": [
                [
                    0.0,
                    4.04982329,
                    4.04982329
                ],
                [
                    4.04982329,
                    0.0,
                    4.04982329
                ],
                [
                    4.04982329,
                    4.04982329,
                    0.0
                ]
            ],
            "a": 5.727315021932428,
            "b": 5.727315021932428,
            "c": 5.727315021932428,
            "alpha": 60.00000000000001,
            "beta": 60.00000000000001,
            "gamma": 60.00000000000001,
            "volume": 132.84285984414106
        },
        "sites": [
            {
                "species": [
                    {
                        "element": "Ba",
                        "occu": 1
                    }
                ],
                "abc": [
                    0.75,
                    0.75,
                    0.75
                ],
                "xyz": [
                    6.074734935,
                    6.074734935,
                    6.074734935
                ],
                "label": "Ba",
                "properties": {}
            },
            {
                "species": [
                    {
                        "element": "Ba",
                        "occu": 1
                    }
                ],
                "abc": [
                    0.25,
                    0.25,
                    0.25
                ],
                "xyz": [
                    2.024911645,
                    2.024911645,
                    2.024911645
                ],
                "label": "Ba",
                "properties": {}
            },
            {
                "species": [
                    {
                        "element": "Mg",
                        "occu": 1
                    }
                ],
                "abc": [
                    0.5,
                    0.5,
                    0.5
                ],
                "xyz": [
                    4.04982329,
                    4.04982329,
                    4.04982329
                ],
                "label": "Mg",
                "properties": {}
            },
            {
                "species": [
                    {
                        "element": "W",
                        "occu": 1
                    }
                ],
                "abc": [
                    0.0,
                    0.0,
                    0.0
                ],
                "xyz": [
                    0.0,
                    0.0,
                    0.0
                ],
                "label": "W",
                "properties": {}
            },
            {
                "species": [
                    {
                        "element": "O",
                        "occu": 1
                    }
                ],
                "abc": [
                    0.76101081,
                    0.76101081,
                    0.23898919
                ],
                "xyz": [
                    4.04982329,
                    4.04982329,
                    6.16391860455953
                ],
                "label": "O",
                "properties": {}
            },
            {
                "species": [
                    {
                        "element": "O",
                        "occu": 1
                    }
                ],
                "abc": [
                    0.76101081,
                    0.23898919,
                    0.76101081
                ],
                "xyz": [
                    4.04982329,
                    6.16391860455953,
                    4.04982329
                ],
                "label": "O",
                "properties": {}
            },
            {
                "species": [
                    {
                        "element": "O",
                        "occu": 1
                    }
                ],
                "abc": [
                    0.23898919,
                    0.76101081,
                    0.23898919
                ],
                "xyz": [
                    4.04982329,
                    1.9357279754404701,
                    4.04982329
                ],
                "label": "O",
                "properties": {}
            },
            {
                "species": [
                    {
                        "element": "O",
                        "occu": 1
                    }
                ],
                "abc": [
                    0.76101081,
                    0.23898919,
                    0.23898919
                ],
                "xyz": [
                    1.9357279754404701,
                    4.04982329,
                    4.04982329
                ],
                "label": "O",
                "properties": {}
            },
            {
                "species": [
                    {
                        "element": "O",
                        "occu": 1
                    }
                ],
                "abc": [
                    0.23898919,
                    0.23898919,
                    0.76101081
                ],
                "xyz": [
                    4.04982329,
                    4.04982329,
                    1.9357279754404701
                ],
                "label": "O",
                "properties": {}
            },
            {
                "species": [
                    {
                        "element": "O",
                        "occu": 1
                    }
                ],
                "abc": [
                    0.23898919,
                    0.76101081,
                    0.76101081
                ],
                "xyz": [
                    6.16391860455953,
                    4.04982329,
                    4.04982329
                ],
                "label": "O",
                "properties": {}
            }
        ]
    },
    "spacegroup": {
        "source": "spglib",
        "symbol": "Fm-3m",
        "number": 225,
        "point_group": "m-3m",
        "crystal_system": "cubic",
        "hall": "-F 4 2 3"
    },
    "dielectric": {
        "epsilon_ionic": [
            [
                15.08373769,
                0.0,
                -0.0
            ],
            [
                0.0,
                15.08310054,
                0.0
            ],
            [
                -0.0,
                0.0,
                15.08233944
            ]
        ],
        "epsilon_ionic_avg": 15.083059223333334,
        "epsilon_ionic_eig": [
            15.08373769,
            15.08310054,
            15.08233944
        ],
        "epsilon_electronic": [
            [
                4.53013574,
                -0.0,
                0.0
            ],
            [
                -0.0,
                4.53013574,
                -0.0
            ],
            [
                0.0,
                -0.0,
                4.53013574
            ]
        ],
        "epsilon_electronic_avg": 4.53013574,
        "epsilon_electronic_eig": [
            4.53013574,
            4.53013574,
            4.53013574
        ]
    },
    "phonon": {
        "lowest_freq": -0.01238227904749435,
        "frequency": [
            -0.01238227904749435,
            -0.01238227904749435,
            -0.01238227904749435,
            3.6306777367323777,
            3.6306777367323777,
            3.6306777367323777,
            4.044434216957816,
            4.044434216957816,
            4.044434216957816,
            4.064331861054247,
            4.064331861054247,
            4.064331861054247,
            7.962764617593735,
            7.962764617593735,
            7.962764617593735,
            8.776575884148945,
            8.776575884148945,
            8.776575884148945,
            9.832866017155007,
            9.832866017155007,
            9.832866017155007,
            12.685609457463887,
            12.685609457463887,
            12.685609457463887,
            16.413223968718363,
            16.413223968718363,
            17.970227481564905,
            17.970227481564905,
            17.970227481564905,
            23.317233759786365
        ]
    },
    "born_effective_charge": {
        "avg_abs_trace": 2.9666316666666668,
        "tensors": [
            [
                [
                    2.78508,
                    -0.0,
                    -0.0
                ],
                [
                    0.0,
                    2.78505,
                    -0.0
                ],
                [
                    -0.0,
                    0.0,
                    2.78497
                ]
            ],
            [
                [
                    2.78508,
                    -0.0,
                    -0.0
                ],
                [
                    0.0,
                    2.78505,
                    -0.0
                ],
                [
                    0.0,
                    0.0,
                    2.78497
                ]
            ],
            [
                [
                    2.88769,
                    -0.0,
                    -0.0
                ],
                [
                    0.0,
                    2.88762,
                    -0.0
                ],
                [
                    -0.0,
                    0.0,
                    2.88743
                ]
            ],
            [
                [
                    6.37565,
                    -0.0,
                    -0.0
                ],
                [
                    0.0,
                    6.37537,
                    -0.0
                ],
                [
                    -0.0,
                    0.0,
                    6.3755
                ]
            ],
            [
                [
                    -1.89284,
                    -0.0,
                    -0.0002
                ],
                [
                    0.0,
                    -1.8928,
                    -2e-05
                ],
                [
                    -0.0,
                    0.0,
                    -3.63091
                ]
            ],
            [
                [
                    -1.89284,
                    -0.0002,
                    -0.0
                ],
                [
                    0.0,
                    -3.63106,
                    -0.0
                ],
                [
                    -0.0,
                    -0.00012,
                    -1.89277
                ]
            ],
            [
                [
                    -1.89284,
                    0.0002,
                    -0.0
                ],
                [
                    0.0,
                    -3.63085,
                    -0.0
                ],
                [
                    0.0,
                    0.00012,
                    -1.89277
                ]
            ],
            [
                [
                    -3.63119,
                    -0.0,
                    -0.0
                ],
                [
                    2e-05,
                    -1.8928,
                    -0.0
                ],
                [
                    0.00012,
                    0.0,
                    -1.89277
                ]
            ],
            [
                [
                    -1.89284,
                    -0.0,
                    0.0002
                ],
                [
                    0.0,
                    -1.8928,
                    2e-05
                ],
                [
                    -0.0,
                    0.0,
                    -3.6309
                ]
            ],
            [
                [
                    -3.63094,
                    -0.0,
                    -0.0
                ],
                [
                    -2e-05,
                    -1.8928,
                    -0.0
                ],
                [
                    -0.00012,
                    0.0,
                    -1.89277
                ]
            ]
        ]
    },
    "band_gap": 3.0277000000000003,
    "is_direct": false,
    "formula": "Ba2MgWO6"
}