{
    "mp_id": "mp-1190600",
    "nelements": 3,
    "nsites": 22,
    "elements": [
        "La",
        "O",
        "Sb"
    ],
    "structure": {
        "@module": "pymatgen.core.structure",
        "@class": "Structure",
        "charge": null,
        "lattice": {
            "matrix": [
                [
                    5.54877823,
                    -3.78423467,
                    0.0
                ],
                [
                    5.54877823,
                    3.78423467,
                    0.0
                ],
                [
                    0.0,
                    0.0,
                    7.73042692
                ]
            ],
            "a": 6.716351083985407,
            "b": 6.716351083985407,
            "c": 7.73042692,
            "alpha": 90.0,
            "beta": 90.0,
            "gamma": 68.58752345498745,
            "volume": 324.645137459464
        },
        "sites": [
            {
                "species": [
                    {
                        "element": "La",
                        "occu": 1
                    }
                ],
                "abc": [
                    0.0,
                    0.0,
                    0.5
                ],
                "xyz": [
                    0.0,
                    0.0,
                    3.86521346
                ],
                "label": "La",
                "properties": {}
            },
            {
                "species": [
                    {
                        "element": "La",
                        "occu": 1
                    }
                ],
                "abc": [
                    0.0,
                    0.0,
                    0.0
                ],
                "xyz": [
                    0.0,
                    0.0,
                    0.0
                ],
                "label": "La",
                "properties": {}
            },
            {
                "species": [
                    {
                        "element": "La",
                        "occu": 1
                    }
                ],
                "abc": [
                    0.47633134,
                    0.06827718,
                    0.25
                ],
                "xyz": [
                    3.0219118996485195,
                    -1.5441726995097271,
                    1.93260673
                ],
                "label": "La",
                "properties": {}
            },
            {
                "species": [
                    {
                        "element": "La",
                        "occu": 1
                    }
                ],
                "abc": [
                    0.06827718,
                    0.47633134,
                    0.75
                ],
                "xyz": [
                    3.0219118996485195,
                    1.5441726995097271,
                    5.79782019
                ],
                "label": "La",
                "properties": {}
            },
            {
                "species": [
                    {
                        "element": "La",
                        "occu": 1
                    }
                ],
                "abc": [
                    0.52366866,
                    0.93172282,
                    0.75
                ],
                "xyz": [
                    8.075644560351481,
                    1.544172699509727,
                    5.79782019
                ],
                "label": "La",
                "properties": {}
            },
            {
                "species": [
                    {
                        "element": "La",
                        "occu": 1
                    }
                ],
                "abc": [
                    0.93172282,
                    0.52366866,
                    0.25
                ],
                "xyz": [
                    8.075644560351481,
                    -1.544172699509727,
                    1.93260673
                ],
                "label": "La",
                "properties": {}
            },
            {
                "species": [
                    {
                        "element": "Sb",
                        "occu": 1
                    }
                ],
                "abc": [
                    0.5,
                    0.5,
                    0.5
                ],
                "xyz": [
                    5.54877823,
                    0.0,
                    3.86521346
                ],
                "label": "Sb",
                "properties": {}
            },
            {
                "species": [
                    {
                        "element": "Sb",
                        "occu": 1
                    }
                ],
                "abc": [
                    0.5,
                    0.5,
                    0.0
                ],
                "xyz": [
                    5.54877823,
                    0.0,
                    0.0
                ],
                "label": "Sb",
                "properties": {}
            },
            {
                "species": [
                    {
                        "element": "O",
                        "occu": 1
                    }
                ],
                "abc": [
                    0.56031719,
                    0.18869397,
                    0.53528772
                ],
                "xyz": [
                    4.156096818635047,
                    -1.4063094733010377,
                    4.138002600633422
                ],
                "label": "O",
                "properties": {}
            },
            {
                "species": [
                    {
                        "element": "O",
                        "occu": 1
                    }
                ],
                "abc": [
                    0.18869397,
                    0.56031719,
                    0.46471228
                ],
                "xyz": [
                    4.156096818635047,
                    1.4063094733010377,
                    3.5924243193665775
                ],
                "label": "O",
                "properties": {}
            },
            {
                "species": [
                    {
                        "element": "O",
                        "occu": 1
                    }
                ],
                "abc": [
                    0.56031719,
                    0.18869397,
                    0.96471228
                ],
                "xyz": [
                    4.156096818635047,
                    -1.4063094733010377,
                    7.457637779366578
                ],
                "label": "O",
                "properties": {}
            },
            {
                "species": [
                    {
                        "element": "O",
                        "occu": 1
                    }
                ],
                "abc": [
                    0.18869397,
                    0.56031719,
                    0.03528772
                ],
                "xyz": [
                    4.156096818635047,
                    1.4063094733010377,
                    0.2727891406334224
                ],
                "label": "O",
                "properties": {}
            },
            {
                "species": [
                    {
                        "element": "O",
                        "occu": 1
                    }
                ],
                "abc": [
                    0.43968281,
                    0.81130603,
                    0.46471228
                ],
                "xyz": [
                    6.941459641364953,
                    1.4063094733010377,
                    3.5924243193665775
                ],
                "label": "O",
                "properties": {}
            },
            {
                "species": [
                    {
                        "element": "O",
                        "occu": 1
                    }
                ],
                "abc": [
                    0.81130603,
                    0.43968281,
                    0.53528772
                ],
                "xyz": [
                    6.941459641364953,
                    -1.4063094733010377,
                    4.138002600633422
                ],
                "label": "O",
                "properties": {}
            },
            {
                "species": [
                    {
                        "element": "O",
                        "occu": 1
                    }
                ],
                "abc": [
                    0.43968281,
                    0.81130603,
                    0.03528772
                ],
                "xyz": [
                    6.941459641364953,
                    1.4063094733010377,
                    0.2727891406334224
                ],
                "label": "O",
                "properties": {}
            },
            {
                "species": [
                    {
                        "element": "O",
                        "occu": 1
                    }
                ],
                "abc": [
                    0.81130603,
                    0.43968281,
                    0.96471228
                ],
                "xyz": [
                    6.941459641364953,
                    -1.4063094733010377,
                    7.457637779366578
                ],
                "label": "O",
                "properties": {}
            },
            {
                "species": [
                    {
                        "element": "O",
                        "occu": 1
                    }
                ],
                "abc": [
                    0.84649326,
                    0.89315852,
                    0.25
                ],
                "xyz": [
                    9.65294192464475,
                    0.1765922947765639,
                    1.93260673
                ],
                "label": "O",
                "properties": {}
            },
            {
                "species": [
                    {
                        "element": "O",
                        "occu": 1
                    }
                ],
                "abc": [
                    0.89315852,
                    0.84649326,
                    0.75
                ],
                "xyz": [
                    9.65294192464475,
                    -0.1765922947765639,
                    5.79782019
                ],
                "label": "O",
                "properties": {}
            },
            {
                "species": [
                    {
                        "element": "O",
                        "occu": 1
                    }
                ],
                "abc": [
                    0.15350674,
                    0.10684148,
                    0.75
                ],
                "xyz": [
                    1.4446145353552506,
                    -0.17659229477656418,
                    5.79782019
                ],
                "label": "O",
                "properties": {}
            },
            {
                "species": [
                    {
                        "element": "O",
                        "occu": 1
                    }
                ],
                "abc": [
                    0.10684148,
                    0.15350674,
                    0.25
                ],
                "xyz": [
                    1.4446145353552506,
                    0.17659229477656418,
                    1.93260673
                ],
                "label": "O",
                "properties": {}
            },
            {
                "species": [
                    {
                        "element": "O",
                        "occu": 1
                    }
                ],
                "abc": [
                    0.58061619,
                    0.41938381,
                    0.25
                ],
                "xyz": [
                    5.54877823,
                    -0.6101411623226145,
                    1.93260673
                ],
                "label": "O",
                "properties": {}
            },
            {
                "species": [
                    {
                        "element": "O",
                        "occu": 1
                    }
                ],
                "abc": [
                    0.41938381,
                    0.58061619,
                    0.75
                ],
                "xyz": [
                    5.54877823,
                    0.6101411623226145,
                    5.79782019
                ],
                "label": "O",
                "properties": {}
            }
        ]
    },
    "spacegroup": {
        "source": "spglib",
        "symbol": "Cmcm",
        "number": 63,
        "point_group": "mmm",
        "crystal_system": "orthorhombic",
        "hall": "-C 2c 2"
    },
    "dielectric": {
        "epsilon_ionic": [
            [
                14.66397356,
                0.0,
                0.0
            ],
            [
                0.0,
                40.95923702,
                0.0
            ],
            [
                0.0,
                0.0,
                16.34921752
            ]
        ],
        "epsilon_ionic_avg": 23.990809366666667,
        "epsilon_ionic_eig": [
            14.66397356,
            40.95923702,
            16.34921752
        ],
        "epsilon_electronic": [
            [
                4.59523615,
                0.0,
                0.0
            ],
            [
                0.0,
                4.42292827,
                0.0
            ],
            [
                0.0,
                0.0,
                4.62028478
            ]
        ],
        "epsilon_electronic_avg": 4.546149733333333,
        "epsilon_electronic_eig": [
            4.59523615,
            4.42292827,
            4.62028478
        ]
    },
    "phonon": {
        "lowest_freq": -0.08042963456927114,
        "frequency": [
            -0.08042963456927114,
            -0.06950738768275305,
            -0.03242073104780814,
            1.417335091381237,
            1.6301732312179031,
            2.538845327993826,
            2.699134606409339,
            2.868196411692853,
            3.2306366556233397,
            3.252009913005121,
            3.6358547417014937,
            3.6725779810422456,
            3.721319752855509,
            3.78215958655839,
            4.004480591149325,
            4.021875359894782,
            4.1012918561680936,
            4.280916033579055,
            4.949517535493094,
            5.069050815342341,
            5.107451706659956,
            5.171196079611829,
            5.574279882685425,
            5.714452857467154,
            6.282729002396692,
            6.745228621807857,
            7.0974454520385635,
            7.215161693479765,
            7.363564462083984,
            7.387990550009211,
            8.106146355978561,
            8.311660303412278,
            8.336246202135444,
            8.711149551084972,
            8.98816368441714,
            9.088965680304156,
            9.108235028714597,
            9.267582187716075,
            9.356488317357929,
            9.8136429756659,
            9.904027023356361,
            9.989358915215968,
            10.010560748440838,
            10.35008447971148,
            10.57808459241312,
            10.628657020365225,
            10.83919591306644,
            11.310096631351364,
            12.08892801499718,
            12.540414388979649,
            12.70509859715355,
            12.962750665011454,
            13.116525125434682,
            14.207877026980203,
            14.418343931769474,
            14.875323609793538,
            15.80160636505597,
            16.556245343402207,
            16.644612038872204,
            16.678506988215,
            17.2041704182888,
            17.539083240426802,
            17.950644511908916,
            19.362550505716463,
            19.875702513820084,
            21.612700263643458
        ]
    },
    "born_effective_charge": {
        "avg_abs_trace": 3.153725909090909,
        "tensors": [
            [
                [
                    3.93855,
                    -0.0,
                    0.0
                ],
                [
                    0.0,
                    3.71154,
                    -0.15983
                ],
                [
                    0.0,
                    -0.27574,
                    4.8032
                ]
            ],
            [
                [
                    3.93855,
                    -0.0,
                    0.0
                ],
                [
                    0.0,
                    3.71154,
                    0.15983
                ],
                [
                    0.0,
                    0.27574,
                    4.8032
                ]
            ],
            [
                [
                    4.49102,
                    -0.46178,
                    0.0
                ],
                [
                    -0.36543,
                    3.95725,
                    -0.0
                ],
                [
                    8e-05,
                    -4e-05,
                    4.00299
                ]
            ],
            [
                [
                    4.49102,
                    0.46178,
                    0.0
                ],
                [
                    0.36546,
                    3.95723,
                    -0.0
                ],
                [
                    8e-05,
                    4e-05,
                    4.00299
                ]
            ],
            [
                [
                    4.49094,
                    -0.46167,
                    -0.0
                ],
                [
                    -0.36546,
                    3.95723,
                    -0.0
                ],
                [
                    -8e-05,
                    4e-05,
                    4.00299
                ]
            ],
            [
                [
                    4.49094,
                    0.46167,
                    0.0
                ],
                [
                    0.36543,
                    3.95725,
                    -0.0
                ],
                [
                    -8e-05,
                    -4e-05,
                    4.00299
                ]
            ],
            [
                [
                    4.72751,
                    -0.0,
                    0.0
                ],
                [
                    0.0,
                    4.96866,
                    0.1075
                ],
                [
                    0.0,
                    0.686,
                    4.98458
                ]
            ],
            [
                [
                    4.72751,
                    -0.0,
                    0.0
                ],
                [
                    0.0,
                    4.96866,
                    -0.1075
                ],
                [
                    0.0,
                    -0.686,
                    4.98458
                ]
            ],
            [
                [
                    -2.45449,
                    -0.46213,
                    0.15878
                ],
                [
                    -0.4393,
                    -2.28476,
                    0.09343
                ],
                [
                    0.21708,
                    0.11183,
                    -2.31905
                ]
            ],
            [
                [
                    -2.45449,
                    0.46213,
                    -0.15878
                ],
                [
                    0.43935,
                    -2.28475,
                    0.09353
                ],
                [
                    -0.21712,
                    0.11188,
                    -2.31898
                ]
            ],
            [
                [
                    -2.45449,
                    -0.46213,
                    -0.15878
                ],
                [
                    -0.4393,
                    -2.28476,
                    -0.09343
                ],
                [
                    -0.21712,
                    -0.11188,
                    -2.31898
                ]
            ],
            [
                [
                    -2.45449,
                    0.46213,
                    0.15878
                ],
                [
                    0.43935,
                    -2.28475,
                    -0.09353
                ],
                [
                    0.21708,
                    -0.11183,
                    -2.31905
                ]
            ],
            [
                [
                    -2.45455,
                    -0.46206,
                    0.15879
                ],
                [
                    -0.43935,
                    -2.28475,
                    0.09353
                ],
                [
                    0.21712,
                    0.11188,
                    -2.31898
                ]
            ],
            [
                [
                    -2.45455,
                    0.46206,
                    -0.15879
                ],
                [
                    0.4393,
                    -2.28476,
                    0.09343
                ],
                [
                    -0.21708,
                    0.11183,
                    -2.31905
                ]
            ],
            [
                [
                    -2.45455,
                    -0.46206,
                    -0.15879
                ],
                [
                    -0.43935,
                    -2.28475,
                    -0.09353
                ],
                [
                    -0.21708,
                    -0.11183,
                    -2.31905
                ]
            ],
            [
                [
                    -2.45455,
                    0.46206,
                    0.15879
                ],
                [
                    0.4393,
                    -2.28476,
                    -0.09343
                ],
                [
                    0.21712,
                    -0.11188,
                    -2.31898
                ]
            ],
            [
                [
                    -2.84163,
                    0.03922,
                    0.0
                ],
                [
                    -0.07974,
                    -2.92115,
                    -0.0
                ],
                [
                    0.0002,
                    -1e-05,
                    -2.61649
                ]
            ],
            [
                [
                    -2.84163,
                    -0.03922,
                    0.0
                ],
                [
                    0.0798,
                    -2.92106,
                    -0.0
                ],
                [
                    0.0002,
                    1e-05,
                    -2.61649
                ]
            ],
            [
                [
                    -2.84167,
                    0.03921,
                    0.0
                ],
                [
                    -0.0798,
                    -2.92106,
                    -0.0
                ],
                [
                    -0.0002,
                    1e-05,
                    -2.61649
                ]
            ],
            [
                [
                    -2.84167,
                    -0.03921,
                    0.0
                ],
                [
                    0.07974,
                    -2.92115,
                    -0.0
                ],
                [
                    -0.0002,
                    -1e-05,
                    -2.61649
                ]
            ],
            [
                [
                    -2.14666,
                    9e-05,
                    0.0
                ],
                [
                    0.0,
                    -1.61347,
                    -0.0
                ],
                [
                    0.0,
                    -5e-05,
                    -3.28473
                ]
            ],
            [
                [
                    -2.14666,
                    -9e-05,
                    0.0
                ],
                [
                    0.0,
                    -1.61344,
                    -0.0
                ],
                [
                    0.0,
                    5e-05,
                    -3.28473
                ]
            ]
        ]
    },
    "band_gap": 2.8849,
    "is_direct": false,
    "formula": "La3SbO7"
}