{
    "mp_id": "mp-18473",
    "nelements": 4,
    "nsites": 24,
    "elements": [
        "La",
        "Mo",
        "O",
        "Rb"
    ],
    "structure": {
        "@module": "pymatgen.core.structure",
        "@class": "Structure",
        "charge": null,
        "lattice": {
            "matrix": [
                [
                    6.3367616,
                    0.0,
                    0.0
                ],
                [
                    0.0,
                    6.3367616,
                    0.0
                ],
                [
                    0.0,
                    0.0,
                    9.69220509
                ]
            ],
            "a": 6.3367616,
            "b": 6.3367616,
            "c": 9.69220509,
            "alpha": 90.0,
            "beta": 90.0,
            "gamma": 90.0,
            "volume": 389.18611039533556
        },
        "sites": [
            {
                "species": [
                    {
                        "element": "Rb",
                        "occu": 1
                    }
                ],
                "abc": [
                    0.0,
                    0.0,
                    0.5
                ],
                "xyz": [
                    0.0,
                    0.0,
                    4.846102545
                ],
                "label": "Rb",
                "properties": {}
            },
            {
                "species": [
                    {
                        "element": "Rb",
                        "occu": 1
                    }
                ],
                "abc": [
                    0.5,
                    0.5,
                    0.0
                ],
                "xyz": [
                    3.1683808,
                    3.1683808,
                    0.0
                ],
                "label": "Rb",
                "properties": {}
            },
            {
                "species": [
                    {
                        "element": "La",
                        "occu": 1
                    }
                ],
                "abc": [
                    0.0,
                    0.0,
                    0.0
                ],
                "xyz": [
                    0.0,
                    0.0,
                    0.0
                ],
                "label": "La",
                "properties": {}
            },
            {
                "species": [
                    {
                        "element": "La",
                        "occu": 1
                    }
                ],
                "abc": [
                    0.5,
                    0.5,
                    0.5
                ],
                "xyz": [
                    3.1683808,
                    3.1683808,
                    4.846102545
                ],
                "label": "La",
                "properties": {}
            },
            {
                "species": [
                    {
                        "element": "Mo",
                        "occu": 1
                    }
                ],
                "abc": [
                    0.0,
                    0.5,
                    0.75
                ],
                "xyz": [
                    0.0,
                    3.1683808,
                    7.2691538174999994
                ],
                "label": "Mo",
                "properties": {}
            },
            {
                "species": [
                    {
                        "element": "Mo",
                        "occu": 1
                    }
                ],
                "abc": [
                    0.0,
                    0.5,
                    0.25
                ],
                "xyz": [
                    0.0,
                    3.1683808,
                    2.4230512725
                ],
                "label": "Mo",
                "properties": {}
            },
            {
                "species": [
                    {
                        "element": "Mo",
                        "occu": 1
                    }
                ],
                "abc": [
                    0.5,
                    0.0,
                    0.75
                ],
                "xyz": [
                    3.1683808,
                    0.0,
                    7.2691538174999994
                ],
                "label": "Mo",
                "properties": {}
            },
            {
                "species": [
                    {
                        "element": "Mo",
                        "occu": 1
                    }
                ],
                "abc": [
                    0.5,
                    0.0,
                    0.25
                ],
                "xyz": [
                    3.1683808,
                    0.0,
                    2.4230512725
                ],
                "label": "Mo",
                "properties": {}
            },
            {
                "species": [
                    {
                        "element": "O",
                        "occu": 1
                    }
                ],
                "abc": [
                    0.80688018,
                    0.61804546,
                    0.63949345
                ],
                "xyz": [
                    5.113007340425088,
                    3.9164067379823364,
                    6.198101671111661
                ],
                "label": "O",
                "properties": {}
            },
            {
                "species": [
                    {
                        "element": "O",
                        "occu": 1
                    }
                ],
                "abc": [
                    0.19311982,
                    0.38195454,
                    0.63949345
                ],
                "xyz": [
                    1.223754259574912,
                    2.420354862017664,
                    6.198101671111661
                ],
                "label": "O",
                "properties": {}
            },
            {
                "species": [
                    {
                        "element": "O",
                        "occu": 1
                    }
                ],
                "abc": [
                    0.61804546,
                    0.80688018,
                    0.36050655
                ],
                "xyz": [
                    3.9164067379823364,
                    5.113007340425088,
                    3.494103418888339
                ],
                "label": "O",
                "properties": {}
            },
            {
                "species": [
                    {
                        "element": "O",
                        "occu": 1
                    }
                ],
                "abc": [
                    0.61804546,
                    0.19311982,
                    0.63949345
                ],
                "xyz": [
                    3.9164067379823364,
                    1.223754259574912,
                    6.198101671111661
                ],
                "label": "O",
                "properties": {}
            },
            {
                "species": [
                    {
                        "element": "O",
                        "occu": 1
                    }
                ],
                "abc": [
                    0.38195454,
                    0.80688018,
                    0.63949345
                ],
                "xyz": [
                    2.420354862017664,
                    5.113007340425088,
                    6.198101671111661
                ],
                "label": "O",
                "properties": {}
            },
            {
                "species": [
                    {
                        "element": "O",
                        "occu": 1
                    }
                ],
                "abc": [
                    0.19311982,
                    0.61804546,
                    0.36050655
                ],
                "xyz": [
                    1.223754259574912,
                    3.9164067379823364,
                    3.494103418888339
                ],
                "label": "O",
                "properties": {}
            },
            {
                "species": [
                    {
                        "element": "O",
                        "occu": 1
                    }
                ],
                "abc": [
                    0.80688018,
                    0.38195454,
                    0.36050655
                ],
                "xyz": [
                    5.113007340425088,
                    2.420354862017664,
                    3.494103418888339
                ],
                "label": "O",
                "properties": {}
            },
            {
                "species": [
                    {
                        "element": "O",
                        "occu": 1
                    }
                ],
                "abc": [
                    0.38195454,
                    0.19311982,
                    0.36050655
                ],
                "xyz": [
                    2.420354862017664,
                    1.223754259574912,
                    3.494103418888339
                ],
                "label": "O",
                "properties": {}
            },
            {
                "species": [
                    {
                        "element": "O",
                        "occu": 1
                    }
                ],
                "abc": [
                    0.11804546,
                    0.30688018,
                    0.13949345
                ],
                "xyz": [
                    0.7480259379823361,
                    1.944626540425088,
                    1.3519991261116604
                ],
                "label": "O",
                "properties": {}
            },
            {
                "species": [
                    {
                        "element": "O",
                        "occu": 1
                    }
                ],
                "abc": [
                    0.69311982,
                    0.11804546,
                    0.13949345
                ],
                "xyz": [
                    4.392135059574913,
                    0.7480259379823361,
                    1.3519991261116604
                ],
                "label": "O",
                "properties": {}
            },
            {
                "species": [
                    {
                        "element": "O",
                        "occu": 1
                    }
                ],
                "abc": [
                    0.30688018,
                    0.88195454,
                    0.13949345
                ],
                "xyz": [
                    1.944626540425088,
                    5.588735662017664,
                    1.3519991261116604
                ],
                "label": "O",
                "properties": {}
            },
            {
                "species": [
                    {
                        "element": "O",
                        "occu": 1
                    }
                ],
                "abc": [
                    0.11804546,
                    0.69311982,
                    0.86050655
                ],
                "xyz": [
                    0.7480259379823361,
                    4.392135059574913,
                    8.340205963888339
                ],
                "label": "O",
                "properties": {}
            },
            {
                "species": [
                    {
                        "element": "O",
                        "occu": 1
                    }
                ],
                "abc": [
                    0.88195454,
                    0.30688018,
                    0.86050655
                ],
                "xyz": [
                    5.588735662017664,
                    1.944626540425088,
                    8.340205963888339
                ],
                "label": "O",
                "properties": {}
            },
            {
                "species": [
                    {
                        "element": "O",
                        "occu": 1
                    }
                ],
                "abc": [
                    0.88195454,
                    0.69311982,
                    0.13949345
                ],
                "xyz": [
                    5.588735662017664,
                    4.392135059574913,
                    1.3519991261116604
                ],
                "label": "O",
                "properties": {}
            },
            {
                "species": [
                    {
                        "element": "O",
                        "occu": 1
                    }
                ],
                "abc": [
                    0.30688018,
                    0.11804546,
                    0.86050655
                ],
                "xyz": [
                    1.944626540425088,
                    0.7480259379823361,
                    8.340205963888339
                ],
                "label": "O",
                "properties": {}
            },
            {
                "species": [
                    {
                        "element": "O",
                        "occu": 1
                    }
                ],
                "abc": [
                    0.69311982,
                    0.88195454,
                    0.86050655
                ],
                "xyz": [
                    4.392135059574913,
                    5.588735662017664,
                    8.340205963888339
                ],
                "label": "O",
                "properties": {}
            }
        ]
    },
    "spacegroup": {
        "source": "spglib",
        "symbol": "P4/nnc",
        "number": 126,
        "point_group": "4/mmm",
        "crystal_system": "tetragonal",
        "hall": "P 4 2 -1n"
    },
    "dielectric": {
        "epsilon_ionic": [
            [
                6.28498133,
                -1.1e-07,
                3e-08
            ],
            [
                -1.1e-07,
                6.28413637,
                3e-08
            ],
            [
                3e-08,
                3e-08,
                7.82450252
            ]
        ],
        "epsilon_ionic_avg": 6.797873406666667,
        "epsilon_ionic_eig": [
            6.28498133001432,
            6.284136369985677,
            7.824502520000002
        ],
        "epsilon_electronic": [
            [
                3.78227421,
                0.0,
                0.0
            ],
            [
                0.0,
                3.78227421,
                0.0
            ],
            [
                0.0,
                0.0,
                3.81361388
            ]
        ],
        "epsilon_electronic_avg": 3.7927207666666667,
        "epsilon_electronic_eig": [
            3.78227421,
            3.78227421,
            3.81361388
        ]
    },
    "phonon": {
        "lowest_freq": -0.05016642598540286,
        "frequency": [
            -0.05016642598540286,
            -0.05016642598540286,
            -0.019200457792384492,
            1.7578154426117532,
            1.984789454919265,
            2.1248644503103624,
            2.1248644503103624,
            2.243687260302482,
            2.243687260302482,
            2.3555252158951747,
            2.3555252158951747,
            2.4444290196913347,
            2.4444290196913347,
            3.3596412988158764,
            3.3596412988158764,
            3.653819172834449,
            3.849054011091945,
            3.849054011091945,
            3.9123064533050003,
            3.949294668243801,
            4.056569560271752,
            4.126308588817863,
            4.126308588817863,
            4.242029164790291,
            4.242029164790291,
            4.252296140800649,
            4.8486355944681,
            4.8486355944681,
            5.2604574535399475,
            5.2604574535399475,
            5.361934980224021,
            5.480945920519417,
            5.801119500758928,
            5.801119500758928,
            6.002468243355686,
            7.356499004291329,
            7.658346542411862,
            8.344704938755612,
            8.353795230200332,
            8.713845807714986,
            8.971911987849593,
            9.05692408429559,
            9.05692408429559,
            9.351447789115214,
            9.403793363003787,
            9.403793363003787,
            9.416691397057061,
            9.416691397057061,
            9.683692243590459,
            9.683692243590459,
            10.035718018607877,
            10.450143768271067,
            10.547512370855337,
            10.689641576987741,
            11.1354973115312,
            11.309774241751427,
            23.051496073499408,
            23.051496073499408,
            23.148949896780955,
            23.220827493005658,
            23.523476116921117,
            23.53388951650076,
            23.53388951650076,
            23.68072629990297,
            23.68072629990297,
            24.304062701017987,
            24.304062701017987,
            26.27946548123285,
            26.28178620423091,
            26.365452030517446,
            26.530317999356388,
            27.35466741558595
        ]
    },
    "born_effective_charge": {
        "avg_abs_trace": 2.4508055555555557,
        "tensors": [
            [
                [
                    1.32762,
                    0.0,
                    0.0
                ],
                [
                    -0.0,
                    1.3275,
                    -0.0
                ],
                [
                    -0.0,
                    -0.0,
                    1.27818
                ]
            ],
            [
                [
                    1.32762,
                    0.0,
                    0.0
                ],
                [
                    -0.0,
                    1.3275,
                    -0.0
                ],
                [
                    -0.0,
                    -0.0,
                    1.27818
                ]
            ],
            [
                [
                    5.08981,
                    0.0,
                    0.0
                ],
                [
                    -0.0,
                    5.08938,
                    -0.0
                ],
                [
                    -0.0,
                    -0.0,
                    5.39921
                ]
            ],
            [
                [
                    5.08981,
                    0.0,
                    0.0
                ],
                [
                    -0.0,
                    5.08938,
                    -0.0
                ],
                [
                    -0.0,
                    -0.0,
                    5.39921
                ]
            ],
            [
                [
                    4.12801,
                    -0.33268,
                    3e-05
                ],
                [
                    0.3327,
                    4.12807,
                    -6e-05
                ],
                [
                    -0.0,
                    -0.0,
                    4.04531
                ]
            ],
            [
                [
                    4.12801,
                    0.33268,
                    -3e-05
                ],
                [
                    -0.3327,
                    4.12807,
                    6e-05
                ],
                [
                    -0.0,
                    -0.0,
                    4.04531
                ]
            ],
            [
                [
                    4.12801,
                    -0.33268,
                    -3e-05
                ],
                [
                    0.3327,
                    4.12807,
                    6e-05
                ],
                [
                    -0.0,
                    -0.0,
                    4.04531
                ]
            ],
            [
                [
                    4.12801,
                    0.33268,
                    3e-05
                ],
                [
                    -0.3327,
                    4.12807,
                    -6e-05
                ],
                [
                    -0.0,
                    -0.0,
                    4.04531
                ]
            ],
            [
                [
                    -2.47438,
                    0.47253,
                    -1.39374
                ],
                [
                    0.52116,
                    -1.19455,
                    0.44813
                ],
                [
                    -1.39102,
                    0.47401,
                    -1.84591
                ]
            ],
            [
                [
                    -2.47355,
                    0.47193,
                    1.39388
                ],
                [
                    0.52075,
                    -1.19411,
                    -0.44759
                ],
                [
                    1.39102,
                    -0.47401,
                    -1.84591
                ]
            ],
            [
                [
                    -1.19463,
                    0.52119,
                    -0.44808
                ],
                [
                    0.47249,
                    -2.47436,
                    1.39372
                ],
                [
                    -0.47371,
                    1.39085,
                    -1.8461
                ]
            ],
            [
                [
                    -1.19463,
                    -0.52119,
                    0.44808
                ],
                [
                    -0.47187,
                    -2.47349,
                    1.39384
                ],
                [
                    0.47401,
                    1.39102,
                    -1.84591
                ]
            ],
            [
                [
                    -1.19417,
                    -0.52076,
                    -0.44757
                ],
                [
                    -0.47249,
                    -2.47436,
                    -1.39372
                ],
                [
                    -0.47401,
                    -1.39102,
                    -1.84591
                ]
            ],
            [
                [
                    -2.47355,
                    -0.47193,
                    -1.39388
                ],
                [
                    -0.52116,
                    -1.19455,
                    -0.44813
                ],
                [
                    -1.39085,
                    -0.47371,
                    -1.8461
                ]
            ],
            [
                [
                    -2.47438,
                    -0.47253,
                    1.39374
                ],
                [
                    -0.52075,
                    -1.19411,
                    0.44759
                ],
                [
                    1.39085,
                    0.47371,
                    -1.8461
                ]
            ],
            [
                [
                    -1.19417,
                    0.52076,
                    0.44757
                ],
                [
                    0.47187,
                    -2.47349,
                    -1.39384
                ],
                [
                    0.47371,
                    -1.39085,
                    -1.8461
                ]
            ],
            [
                [
                    -1.19463,
                    0.52119,
                    0.44808
                ],
                [
                    0.47249,
                    -2.47436,
                    -1.39372
                ],
                [
                    0.47401,
                    -1.39102,
                    -1.84591
                ]
            ],
            [
                [
                    -2.47355,
                    -0.47193,
                    1.39388
                ],
                [
                    -0.52116,
                    -1.19455,
                    0.44813
                ],
                [
                    1.39102,
                    0.47401,
                    -1.84591
                ]
            ],
            [
                [
                    -2.47438,
                    -0.47253,
                    -1.39374
                ],
                [
                    -0.52075,
                    -1.19411,
                    -0.44759
                ],
                [
                    -1.39102,
                    -0.47401,
                    -1.84591
                ]
            ],
            [
                [
                    -1.19463,
                    -0.52119,
                    -0.44808
                ],
                [
                    -0.47187,
                    -2.47349,
                    -1.39384
                ],
                [
                    -0.47371,
                    -1.39085,
                    -1.8461
                ]
            ],
            [
                [
                    -1.19417,
                    -0.52076,
                    0.44757
                ],
                [
                    -0.47249,
                    -2.47436,
                    1.39372
                ],
                [
                    0.47371,
                    1.39085,
                    -1.8461
                ]
            ],
            [
                [
                    -1.19417,
                    0.52076,
                    -0.44757
                ],
                [
                    0.47187,
                    -2.47349,
                    1.39384
                ],
                [
                    -0.47401,
                    1.39102,
                    -1.84591
                ]
            ],
            [
                [
                    -2.47438,
                    0.47253,
                    1.39374
                ],
                [
                    0.52116,
                    -1.19455,
                    -0.44813
                ],
                [
                    1.39085,
                    -0.47371,
                    -1.8461
                ]
            ],
            [
                [
                    -2.47355,
                    0.47193,
                    -1.39388
                ],
                [
                    0.52075,
                    -1.19411,
                    0.44759
                ],
                [
                    -1.39085,
                    0.47371,
                    -1.8461
                ]
            ]
        ]
    },
    "band_gap": 3.7087000000000003,
    "is_direct": false,
    "formula": "RbLa(MoO4)2"
}