{
    "mp_id": "mp-16834",
    "nelements": 3,
    "nsites": 26,
    "elements": [
        "As",
        "O",
        "Zn"
    ],
    "structure": {
        "@module": "pymatgen.core.structure",
        "@class": "Structure",
        "charge": null,
        "lattice": {
            "matrix": [
                [
                    5.25669113,
                    0.0,
                    -0.00060042
                ],
                [
                    0.0,
                    8.31106513,
                    0.0
                ],
                [
                    -4.29406755,
                    0.0,
                    7.66692186
                ]
            ],
            "a": 5.256691164290029,
            "b": 8.31106513,
            "c": 8.787531333162281,
            "alpha": 90.0,
            "beta": 119.25873453092795,
            "gamma": 90.0,
            "volume": 334.936439126003
        },
        "sites": [
            {
                "species": [
                    {
                        "element": "Zn",
                        "occu": 1
                    }
                ],
                "abc": [
                    0.51039983,
                    0.8597597,
                    0.10615745
                ],
                "xyz": [
                    2.2271669978787605,
                    7.1455188628492605,
                    0.8135944197409285
                ],
                "label": "Zn",
                "properties": {}
            },
            {
                "species": [
                    {
                        "element": "Zn",
                        "occu": 1
                    }
                ],
                "abc": [
                    0.48960017,
                    0.3597597,
                    0.39384255
                ],
                "xyz": [
                    0.8824903571212392,
                    2.989986297849261,
                    3.0192660902590718
                ],
                "label": "Zn",
                "properties": {}
            },
            {
                "species": [
                    {
                        "element": "Zn",
                        "occu": 1
                    }
                ],
                "abc": [
                    0.48960017,
                    0.1402403,
                    0.89384255
                ],
                "xyz": [
                    -1.2645434178787607,
                    1.165546267150739,
                    6.852727020259072
                ],
                "label": "Zn",
                "properties": {}
            },
            {
                "species": [
                    {
                        "element": "Zn",
                        "occu": 1
                    }
                ],
                "abc": [
                    0.51039983,
                    0.6402403,
                    0.60615745
                ],
                "xyz": [
                    0.08013322287876035,
                    5.3210788321507385,
                    4.647055349740928
                ],
                "label": "Zn",
                "properties": {}
            },
            {
                "species": [
                    {
                        "element": "Zn",
                        "occu": 1
                    }
                ],
                "abc": [
                    0.5,
                    0.0,
                    0.5
                ],
                "xyz": [
                    0.4813117899999999,
                    0.0,
                    3.8331607200000004
                ],
                "label": "Zn",
                "properties": {}
            },
            {
                "species": [
                    {
                        "element": "Zn",
                        "occu": 1
                    }
                ],
                "abc": [
                    0.5,
                    0.5,
                    0.0
                ],
                "xyz": [
                    2.628345565,
                    4.155532565,
                    -0.00030021
                ],
                "label": "Zn",
                "properties": {}
            },
            {
                "species": [
                    {
                        "element": "As",
                        "occu": 1
                    }
                ],
                "abc": [
                    0.14518229,
                    0.69329454,
                    0.19232826
                ],
                "xyz": [
                    -0.06269208413787541,
                    5.76201607621339,
                    1.4744785705392018
                ],
                "label": "As",
                "properties": {}
            },
            {
                "species": [
                    {
                        "element": "As",
                        "occu": 1
                    }
                ],
                "abc": [
                    0.85481771,
                    0.19329454,
                    0.30767174
                ],
                "xyz": [
                    3.172349439137875,
                    1.60648351121339,
                    2.3583819394607985
                ],
                "label": "As",
                "properties": {}
            },
            {
                "species": [
                    {
                        "element": "As",
                        "occu": 1
                    }
                ],
                "abc": [
                    0.85481771,
                    0.30670546,
                    0.80767174
                ],
                "xyz": [
                    1.025315664137875,
                    2.5490490537866095,
                    6.191842869460799
                ],
                "label": "As",
                "properties": {}
            },
            {
                "species": [
                    {
                        "element": "As",
                        "occu": 1
                    }
                ],
                "abc": [
                    0.14518229,
                    0.80670546,
                    0.69232826
                ],
                "xyz": [
                    -2.2097258591378752,
                    6.704581618786609,
                    5.307939500539202
                ],
                "label": "As",
                "properties": {}
            },
            {
                "species": [
                    {
                        "element": "O",
                        "occu": 1
                    }
                ],
                "abc": [
                    0.28685743,
                    0.93801476,
                    0.86449163
                ],
                "xyz": [
                    -2.204264547774011,
                    7.795901763261318,
                    6.6278175408959115
                ],
                "label": "O",
                "properties": {}
            },
            {
                "species": [
                    {
                        "element": "O",
                        "occu": 1
                    }
                ],
                "abc": [
                    0.71314257,
                    0.43801476,
                    0.63550837
                ],
                "xyz": [
                    1.0198543527740105,
                    3.6403691982613187,
                    4.87196482910409
                ],
                "label": "O",
                "properties": {}
            },
            {
                "species": [
                    {
                        "element": "O",
                        "occu": 1
                    }
                ],
                "abc": [
                    0.71314257,
                    0.06198524,
                    0.13550837
                ],
                "xyz": [
                    3.1668881277740106,
                    0.5151633667386811,
                    1.0385038991040887
                ],
                "label": "O",
                "properties": {}
            },
            {
                "species": [
                    {
                        "element": "O",
                        "occu": 1
                    }
                ],
                "abc": [
                    0.28685743,
                    0.56198524,
                    0.36449163
                ],
                "xyz": [
                    -0.057230772774010674,
                    4.670695931738681,
                    2.7943566108959113
                ],
                "label": "O",
                "properties": {}
            },
            {
                "species": [
                    {
                        "element": "O",
                        "occu": 1
                    }
                ],
                "abc": [
                    0.77747118,
                    0.80203877,
                    0.61450223
                ],
                "xyz": [
                    1.4482117704909965,
                    6.66579645425509,
                    4.710873770959853
                ],
                "label": "O",
                "properties": {}
            },
            {
                "species": [
                    {
                        "element": "O",
                        "occu": 1
                    }
                ],
                "abc": [
                    0.22252882,
                    0.30203877,
                    0.88549777
                ],
                "xyz": [
                    -2.632621965490997,
                    2.51026388925509,
                    6.788908599040148
                ],
                "label": "O",
                "properties": {}
            },
            {
                "species": [
                    {
                        "element": "O",
                        "occu": 1
                    }
                ],
                "abc": [
                    0.22252882,
                    0.19796123,
                    0.38549777
                ],
                "xyz": [
                    -0.4855881904909971,
                    1.6452686757449098,
                    2.955447669040148
                ],
                "label": "O",
                "properties": {}
            },
            {
                "species": [
                    {
                        "element": "O",
                        "occu": 1
                    }
                ],
                "abc": [
                    0.77747118,
                    0.69796123,
                    0.11450223
                ],
                "xyz": [
                    3.595245545490997,
                    5.800801240744909,
                    0.8774128409598523
                ],
                "label": "O",
                "properties": {}
            },
            {
                "species": [
                    {
                        "element": "O",
                        "occu": 1
                    }
                ],
                "abc": [
                    0.2210029,
                    0.86113117,
                    0.53109365
                ],
                "xyz": [
                    -1.1188080243417804,
                    7.156917239343101,
                    4.071720820330971
                ],
                "label": "O",
                "properties": {}
            },
            {
                "species": [
                    {
                        "element": "O",
                        "occu": 1
                    }
                ],
                "abc": [
                    0.7789971,
                    0.36113117,
                    0.96890635
                ],
                "xyz": [
                    -0.06560217065821927,
                    3.001384674343102,
                    7.428061549669029
                ],
                "label": "O",
                "properties": {}
            },
            {
                "species": [
                    {
                        "element": "O",
                        "occu": 1
                    }
                ],
                "abc": [
                    0.32944043,
                    0.87497508,
                    0.2544493
                ],
                "xyz": [
                    0.639144103994171,
                    7.27197487700696,
                    1.9506450978087175
                ],
                "label": "O",
                "properties": {}
            },
            {
                "species": [
                    {
                        "element": "O",
                        "occu": 1
                    }
                ],
                "abc": [
                    0.67055957,
                    0.37497508,
                    0.2455507
                ],
                "xyz": [
                    2.470513251005829,
                    3.1164423120069604,
                    1.8822154121912829
                ],
                "label": "O",
                "properties": {}
            },
            {
                "species": [
                    {
                        "element": "O",
                        "occu": 1
                    }
                ],
                "abc": [
                    0.67055957,
                    0.12502492,
                    0.7455507
                ],
                "xyz": [
                    0.3234794760058288,
                    1.0390902529930397,
                    5.7156763421912835
                ],
                "label": "O",
                "properties": {}
            },
            {
                "species": [
                    {
                        "element": "O",
                        "occu": 1
                    }
                ],
                "abc": [
                    0.32944043,
                    0.62502492,
                    0.7544493
                ],
                "xyz": [
                    -1.507889671005829,
                    5.194622817993039,
                    5.7841060278087175
                ],
                "label": "O",
                "properties": {}
            },
            {
                "species": [
                    {
                        "element": "O",
                        "occu": 1
                    }
                ],
                "abc": [
                    0.2210029,
                    0.63886883,
                    0.03109365
                ],
                "xyz": [
                    1.0282257506582195,
                    5.309680455656898,
                    0.238259890330971
                ],
                "label": "O",
                "properties": {}
            },
            {
                "species": [
                    {
                        "element": "O",
                        "occu": 1
                    }
                ],
                "abc": [
                    0.7789971,
                    0.13886883,
                    0.46890635
                ],
                "xyz": [
                    2.0814316043417804,
                    1.1541478906568978,
                    3.5946006196690297
                ],
                "label": "O",
                "properties": {}
            }
        ]
    },
    "spacegroup": {
        "source": "spglib",
        "symbol": "P2_1/c",
        "number": 14,
        "point_group": "2/m",
        "crystal_system": "monoclinic",
        "hall": "-P 2ybc"
    },
    "dielectric": {
        "epsilon_ionic": [
            [
                5.15397322,
                2e-08,
                0.80084859
            ],
            [
                2e-08,
                7.42857894,
                -1e-08
            ],
            [
                0.80084859,
                -1e-08,
                5.38831016
            ]
        ],
        "epsilon_ionic_avg": 5.990287439999999,
        "epsilon_ionic_eig": [
            4.461767293032112,
            6.080516086967881,
            7.42857894
        ],
        "epsilon_electronic": [
            [
                3.54841227,
                0.0,
                -0.02540582
            ],
            [
                0.0,
                3.31554723,
                0.0
            ],
            [
                -0.02540548,
                0.0,
                3.32511194
            ]
        ],
        "epsilon_electronic_avg": 3.3963571466666664,
        "epsilon_electronic_eig": [
            3.5512662813274196,
            3.3222579286725806,
            3.31554723
        ]
    },
    "phonon": {
        "lowest_freq": -0.054647683574730335,
        "frequency": [
            -0.054647683574730335,
            -0.045092537944700764,
            -0.03898282379098537,
            2.2368590295483517,
            2.284373089578401,
            2.4823721115402537,
            2.591833139410663,
            2.773811553356054,
            2.7998913319944414,
            2.84522690123617,
            3.2144283084621734,
            3.40833950286374,
            3.4908263336870347,
            3.5707935504845985,
            3.6997245333045012,
            3.862118871873004,
            4.091981335985066,
            4.134356365706864,
            4.5152246898330946,
            4.75985586614884,
            4.781048773894892,
            5.185357008216168,
            5.305440396468781,
            5.363281717373896,
            5.488393443767367,
            5.760429583035707,
            5.85293938578146,
            5.892432053563691,
            6.325174504322098,
            6.449638380834306,
            6.8505450627246045,
            6.906594467482441,
            7.085214778860625,
            7.589951183562251,
            7.739321947518446,
            7.945086816466028,
            8.118751366566164,
            8.48033227287558,
            8.561556523431925,
            8.650117126951564,
            8.729116036430199,
            8.778682024068708,
            9.702468739836933,
            9.94399321351003,
            10.251395726898416,
            10.480588024046751,
            11.142517080391377,
            11.29096088833631,
            11.54733425473021,
            11.880019260268753,
            12.816610192175503,
            12.903312795252386,
            12.955009310153502,
            13.096782771958665,
            13.639523735634159,
            13.69739349375707,
            13.9843301119366,
            14.461715801935624,
            14.506834947609951,
            14.949834713544456,
            15.327498431692733,
            15.646926895092928,
            21.975470266846706,
            22.25312201828236,
            22.484799415029027,
            23.35416791494522,
            23.68983957630482,
            23.87773224343432,
            24.04883626238126,
            24.071042751850953,
            24.22518540314254,
            24.408761890796114,
            24.84668238764623,
            24.937543703280106,
            25.209898532865502,
            25.50440447367564,
            25.715891816809727,
            26.52578695996976
        ]
    },
    "born_effective_charge": {
        "avg_abs_trace": 2.0998007692307694,
        "tensors": [
            [
                [
                    2.23456,
                    -0.09906,
                    -0.17698
                ],
                [
                    0.37588,
                    2.24146,
                    -0.03026
                ],
                [
                    -0.02015,
                    -0.11783,
                    1.97757
                ]
            ],
            [
                [
                    2.23461,
                    0.09913,
                    -0.17687
                ],
                [
                    -0.37588,
                    2.24146,
                    0.03026
                ],
                [
                    -0.02021,
                    0.11781,
                    1.97758
                ]
            ],
            [
                [
                    2.23461,
                    -0.09913,
                    -0.17687
                ],
                [
                    0.37582,
                    2.24145,
                    -0.03028
                ],
                [
                    -0.02021,
                    -0.11781,
                    1.97758
                ]
            ],
            [
                [
                    2.23456,
                    0.09906,
                    -0.17698
                ],
                [
                    -0.37582,
                    2.24145,
                    0.03028
                ],
                [
                    -0.02015,
                    0.11783,
                    1.97757
                ]
            ],
            [
                [
                    2.43894,
                    -0.22632,
                    0.23275
                ],
                [
                    0.11768,
                    2.6435,
                    0.43423
                ],
                [
                    -0.2502,
                    -0.36709,
                    2.38107
                ]
            ],
            [
                [
                    2.43894,
                    0.22632,
                    0.23275
                ],
                [
                    -0.11768,
                    2.6435,
                    -0.43423
                ],
                [
                    -0.2502,
                    0.36709,
                    2.38107
                ]
            ],
            [
                [
                    3.7568,
                    0.04507,
                    -0.09965
                ],
                [
                    0.09869,
                    3.0905,
                    -0.12762
                ],
                [
                    0.06853,
                    -0.02147,
                    3.4404
                ]
            ],
            [
                [
                    3.75664,
                    -0.04507,
                    -0.09958
                ],
                [
                    -0.09869,
                    3.0905,
                    0.12762
                ],
                [
                    0.06865,
                    0.0214,
                    3.44043
                ]
            ],
            [
                [
                    3.75664,
                    0.04507,
                    -0.09958
                ],
                [
                    0.09875,
                    3.0906,
                    -0.12762
                ],
                [
                    0.06865,
                    -0.0214,
                    3.44043
                ]
            ],
            [
                [
                    3.7568,
                    -0.04507,
                    -0.09965
                ],
                [
                    -0.09875,
                    3.0906,
                    0.12762
                ],
                [
                    0.06853,
                    0.02147,
                    3.4404
                ]
            ],
            [
                [
                    -1.09273,
                    -0.14504,
                    -0.01935
                ],
                [
                    -0.27741,
                    -1.91681,
                    -0.47684
                ],
                [
                    -0.10507,
                    -0.44189,
                    -2.22698
                ]
            ],
            [
                [
                    -1.0929,
                    0.1448,
                    -0.01902
                ],
                [
                    0.27741,
                    -1.91681,
                    0.47684
                ],
                [
                    -0.10503,
                    0.44154,
                    -2.22678
                ]
            ],
            [
                [
                    -1.0929,
                    -0.1448,
                    -0.01902
                ],
                [
                    -0.27761,
                    -1.91696,
                    -0.4769
                ],
                [
                    -0.10503,
                    -0.44154,
                    -2.22678
                ]
            ],
            [
                [
                    -1.09273,
                    0.14504,
                    -0.01935
                ],
                [
                    0.27761,
                    -1.91696,
                    0.4769
                ],
                [
                    -0.10507,
                    0.44189,
                    -2.22698
                ]
            ],
            [
                [
                    -2.52949,
                    -0.13351,
                    -0.52061
                ],
                [
                    -0.19313,
                    -1.45547,
                    0.02582
                ],
                [
                    -0.53903,
                    0.12934,
                    -1.21962
                ]
            ],
            [
                [
                    -2.5292,
                    0.1335,
                    -0.52043
                ],
                [
                    0.19313,
                    -1.45547,
                    -0.02582
                ],
                [
                    -0.53883,
                    -0.12948,
                    -1.21944
                ]
            ],
            [
                [
                    -2.5292,
                    -0.1335,
                    -0.52043
                ],
                [
                    -0.19336,
                    -1.45561,
                    0.02584
                ],
                [
                    -0.53883,
                    0.12948,
                    -1.21944
                ]
            ],
            [
                [
                    -2.52949,
                    0.13351,
                    -0.52061
                ],
                [
                    0.19336,
                    -1.45561,
                    -0.02584
                ],
                [
                    -0.53903,
                    -0.12934,
                    -1.21962
                ]
            ],
            [
                [
                    -2.02672,
                    -0.11726,
                    0.49718
                ],
                [
                    -0.17796,
                    -1.48249,
                    0.23144
                ],
                [
                    0.53516,
                    0.3097,
                    -1.58024
                ]
            ],
            [
                [
                    -2.02669,
                    0.1171,
                    0.49717
                ],
                [
                    0.17796,
                    -1.48249,
                    -0.23144
                ],
                [
                    0.53491,
                    -0.30966,
                    -1.58013
                ]
            ],
            [
                [
                    -1.5619,
                    -0.24823,
                    0.2027
                ],
                [
                    -0.47856,
                    -1.79884,
                    -0.43804
                ],
                [
                    0.18561,
                    -0.41273,
                    -1.58192
                ]
            ],
            [
                [
                    -1.56192,
                    0.24833,
                    0.20268
                ],
                [
                    0.47856,
                    -1.79884,
                    0.43804
                ],
                [
                    0.18567,
                    0.41288,
                    -1.58195
                ]
            ],
            [
                [
                    -1.56192,
                    -0.24833,
                    0.20268
                ],
                [
                    -0.4786,
                    -1.79897,
                    -0.43828
                ],
                [
                    0.18567,
                    -0.41288,
                    -1.58195
                ]
            ],
            [
                [
                    -1.5619,
                    0.24823,
                    0.2027
                ],
                [
                    0.4786,
                    -1.79897,
                    0.43828
                ],
                [
                    0.18561,
                    0.41273,
                    -1.58192
                ]
            ],
            [
                [
                    -2.02672,
                    0.11726,
                    0.49718
                ],
                [
                    0.17793,
                    -1.48236,
                    -0.2317
                ],
                [
                    0.53516,
                    -0.3097,
                    -1.58024
                ]
            ],
            [
                [
                    -2.02669,
                    -0.1171,
                    0.49717
                ],
                [
                    -0.17793,
                    -1.48236,
                    0.2317
                ],
                [
                    0.53491,
                    0.30966,
                    -1.58013
                ]
            ]
        ]
    },
    "band_gap": 2.5768999999999997,
    "is_direct": false,
    "formula": "Zn3(AsO4)2"
}