{
    "mp_id": "mp-19038",
    "nelements": 3,
    "nsites": 36,
    "elements": [
        "O",
        "Sr",
        "V"
    ],
    "structure": {
        "@module": "pymatgen.core.structure",
        "@class": "Structure",
        "charge": null,
        "lattice": {
            "matrix": [
                [
                    9.7228021,
                    0.0,
                    0.0
                ],
                [
                    0.0,
                    3.6853861,
                    0.0
                ],
                [
                    0.0,
                    0.0,
                    12.40874013
                ]
            ],
            "a": 9.7228021,
            "b": 3.6853861,
            "c": 12.40874013,
            "alpha": 90.0,
            "beta": 90.0,
            "gamma": 90.0,
            "volume": 444.6334472165287
        },
        "sites": [
            {
                "species": [
                    {
                        "element": "Sr",
                        "occu": 1
                    }
                ],
                "abc": [
                    0.6288476,
                    0.25,
                    0.12148276
                ],
                "xyz": [
                    6.114160765859959,
                    0.921346525,
                    1.5074479991151588
                ],
                "label": "Sr",
                "properties": {}
            },
            {
                "species": [
                    {
                        "element": "Sr",
                        "occu": 1
                    }
                ],
                "abc": [
                    0.3711524,
                    0.75,
                    0.87851724
                ],
                "xyz": [
                    3.6086413341400396,
                    2.764039575,
                    10.90129213088484
                ],
                "label": "Sr",
                "properties": {}
            },
            {
                "species": [
                    {
                        "element": "Sr",
                        "occu": 1
                    }
                ],
                "abc": [
                    0.1288476,
                    0.25,
                    0.37851724
                ],
                "xyz": [
                    1.25275971585996,
                    0.921346525,
                    4.6969220658848405
                ],
                "label": "Sr",
                "properties": {}
            },
            {
                "species": [
                    {
                        "element": "Sr",
                        "occu": 1
                    }
                ],
                "abc": [
                    0.8711524,
                    0.75,
                    0.62148276
                ],
                "xyz": [
                    8.47004238414004,
                    2.764039575,
                    7.7118180641151595
                ],
                "label": "Sr",
                "properties": {}
            },
            {
                "species": [
                    {
                        "element": "V",
                        "occu": 1
                    }
                ],
                "abc": [
                    0.24096517,
                    0.25,
                    0.08483949
                ],
                "xyz": [
                    2.3428566609028567,
                    0.921346525,
                    1.0527511841717336
                ],
                "label": "V",
                "properties": {}
            },
            {
                "species": [
                    {
                        "element": "V",
                        "occu": 1
                    }
                ],
                "abc": [
                    0.75903483,
                    0.75,
                    0.91516051
                ],
                "xyz": [
                    7.379945439097143,
                    2.764039575,
                    11.355988945828265
                ],
                "label": "V",
                "properties": {}
            },
            {
                "species": [
                    {
                        "element": "V",
                        "occu": 1
                    }
                ],
                "abc": [
                    0.74096517,
                    0.25,
                    0.41516051
                ],
                "xyz": [
                    7.204257710902856,
                    0.921346525,
                    5.151618880828266
                ],
                "label": "V",
                "properties": {}
            },
            {
                "species": [
                    {
                        "element": "V",
                        "occu": 1
                    }
                ],
                "abc": [
                    0.25903483,
                    0.75,
                    0.58483949
                ],
                "xyz": [
                    2.518544389097143,
                    2.764039575,
                    7.257121249171734
                ],
                "label": "V",
                "properties": {}
            },
            {
                "species": [
                    {
                        "element": "V",
                        "occu": 1
                    }
                ],
                "abc": [
                    0.00417321,
                    0.25,
                    0.87880966
                ],
                "xyz": [
                    0.040575294951740996,
                    0.921346525,
                    10.904920694673656
                ],
                "label": "V",
                "properties": {}
            },
            {
                "species": [
                    {
                        "element": "V",
                        "occu": 1
                    }
                ],
                "abc": [
                    0.99582679,
                    0.75,
                    0.12119034
                ],
                "xyz": [
                    9.682226805048257,
                    2.764039575,
                    1.503819435326344
                ],
                "label": "V",
                "properties": {}
            },
            {
                "species": [
                    {
                        "element": "V",
                        "occu": 1
                    }
                ],
                "abc": [
                    0.49582679,
                    0.75,
                    0.37880966
                ],
                "xyz": [
                    4.820825755048259,
                    2.764039575,
                    4.700550629673656
                ],
                "label": "V",
                "properties": {}
            },
            {
                "species": [
                    {
                        "element": "V",
                        "occu": 1
                    }
                ],
                "abc": [
                    0.50417321,
                    0.25,
                    0.62119034
                ],
                "xyz": [
                    4.901976344951741,
                    0.921346525,
                    7.708189500326344
                ],
                "label": "V",
                "properties": {}
            },
            {
                "species": [
                    {
                        "element": "O",
                        "occu": 1
                    }
                ],
                "abc": [
                    0.39708047,
                    0.25,
                    0.02129225
                ],
                "xyz": [
                    3.8607348275849867,
                    0.921346525,
                    0.26420999703299247
                ],
                "label": "O",
                "properties": {}
            },
            {
                "species": [
                    {
                        "element": "O",
                        "occu": 1
                    }
                ],
                "abc": [
                    0.60291953,
                    0.75,
                    0.97870775
                ],
                "xyz": [
                    5.862067272415012,
                    2.764039575,
                    12.144530132967008
                ],
                "label": "O",
                "properties": {}
            },
            {
                "species": [
                    {
                        "element": "O",
                        "occu": 1
                    }
                ],
                "abc": [
                    0.89708047,
                    0.25,
                    0.47870775
                ],
                "xyz": [
                    8.722135877584986,
                    0.921346525,
                    5.940160067967008
                ],
                "label": "O",
                "properties": {}
            },
            {
                "species": [
                    {
                        "element": "O",
                        "occu": 1
                    }
                ],
                "abc": [
                    0.10291953,
                    0.75,
                    0.52129225
                ],
                "xyz": [
                    1.000666222415013,
                    2.764039575,
                    6.468580062032992
                ],
                "label": "O",
                "properties": {}
            },
            {
                "species": [
                    {
                        "element": "O",
                        "occu": 1
                    }
                ],
                "abc": [
                    0.27633802,
                    0.25,
                    0.21350148
                ],
                "xyz": [
                    2.686779881165842,
                    0.921346525,
                    2.6492843826903925
                ],
                "label": "O",
                "properties": {}
            },
            {
                "species": [
                    {
                        "element": "O",
                        "occu": 1
                    }
                ],
                "abc": [
                    0.72366198,
                    0.75,
                    0.78649852
                ],
                "xyz": [
                    7.036022218834158,
                    2.764039575,
                    9.759455747309607
                ],
                "label": "O",
                "properties": {}
            },
            {
                "species": [
                    {
                        "element": "O",
                        "occu": 1
                    }
                ],
                "abc": [
                    0.77633802,
                    0.25,
                    0.28649852
                ],
                "xyz": [
                    7.548180931165841,
                    0.921346525,
                    3.5550856823096075
                ],
                "label": "O",
                "properties": {}
            },
            {
                "species": [
                    {
                        "element": "O",
                        "occu": 1
                    }
                ],
                "abc": [
                    0.22366198,
                    0.75,
                    0.71350148
                ],
                "xyz": [
                    2.174621168834158,
                    2.764039575,
                    8.853654447690392
                ],
                "label": "O",
                "properties": {}
            },
            {
                "species": [
                    {
                        "element": "O",
                        "occu": 1
                    }
                ],
                "abc": [
                    0.02963428,
                    0.25,
                    0.0848462
                ],
                "xyz": [
                    0.28812823981598795,
                    0.921346525,
                    1.052834446818006
                ],
                "label": "O",
                "properties": {}
            },
            {
                "species": [
                    {
                        "element": "O",
                        "occu": 1
                    }
                ],
                "abc": [
                    0.97036572,
                    0.75,
                    0.9151538
                ],
                "xyz": [
                    9.434673860184011,
                    2.764039575,
                    11.355905683181994
                ],
                "label": "O",
                "properties": {}
            },
            {
                "species": [
                    {
                        "element": "O",
                        "occu": 1
                    }
                ],
                "abc": [
                    0.52963428,
                    0.25,
                    0.4151538
                ],
                "xyz": [
                    5.1495292898159875,
                    0.921346525,
                    5.1515356181819945
                ],
                "label": "O",
                "properties": {}
            },
            {
                "species": [
                    {
                        "element": "O",
                        "occu": 1
                    }
                ],
                "abc": [
                    0.47036572,
                    0.75,
                    0.5848462
                ],
                "xyz": [
                    4.573272810184012,
                    2.764039575,
                    7.2572045118180055
                ],
                "label": "O",
                "properties": {}
            },
            {
                "species": [
                    {
                        "element": "O",
                        "occu": 1
                    }
                ],
                "abc": [
                    0.32319366,
                    0.75,
                    0.3964594
                ],
                "xyz": [
                    3.142347996154686,
                    2.764039575,
                    4.9195616666957225
                ],
                "label": "O",
                "properties": {}
            },
            {
                "species": [
                    {
                        "element": "O",
                        "occu": 1
                    }
                ],
                "abc": [
                    0.67680634,
                    0.25,
                    0.6035406
                ],
                "xyz": [
                    6.580454103845313,
                    0.921346525,
                    7.4891784633042775
                ],
                "label": "O",
                "properties": {}
            },
            {
                "species": [
                    {
                        "element": "O",
                        "occu": 1
                    }
                ],
                "abc": [
                    0.82319366,
                    0.75,
                    0.1035406
                ],
                "xyz": [
                    8.003749046154686,
                    2.764039575,
                    1.284808398304278
                ],
                "label": "O",
                "properties": {}
            },
            {
                "species": [
                    {
                        "element": "O",
                        "occu": 1
                    }
                ],
                "abc": [
                    0.17680634,
                    0.25,
                    0.8964594
                ],
                "xyz": [
                    1.719053053845314,
                    0.921346525,
                    11.123931731695722
                ],
                "label": "O",
                "properties": {}
            },
            {
                "species": [
                    {
                        "element": "O",
                        "occu": 1
                    }
                ],
                "abc": [
                    0.52617234,
                    0.75,
                    0.2467981
                ],
                "xyz": [
                    5.115869532313914,
                    2.764039575,
                    3.062453487477753
                ],
                "label": "O",
                "properties": {}
            },
            {
                "species": [
                    {
                        "element": "O",
                        "occu": 1
                    }
                ],
                "abc": [
                    0.47382766,
                    0.25,
                    0.7532019
                ],
                "xyz": [
                    4.606932567686085,
                    0.921346525,
                    9.346286642522246
                ],
                "label": "O",
                "properties": {}
            },
            {
                "species": [
                    {
                        "element": "O",
                        "occu": 1
                    }
                ],
                "abc": [
                    0.80607411,
                    0.25,
                    0.93596356
                ],
                "xyz": [
                    7.837299049463629,
                    0.921346525,
                    11.614128587189663
                ],
                "label": "O",
                "properties": {}
            },
            {
                "species": [
                    {
                        "element": "O",
                        "occu": 1
                    }
                ],
                "abc": [
                    0.97382766,
                    0.25,
                    0.7467981
                ],
                "xyz": [
                    9.468333617686085,
                    0.921346525,
                    9.266823552477753
                ],
                "label": "O",
                "properties": {}
            },
            {
                "species": [
                    {
                        "element": "O",
                        "occu": 1
                    }
                ],
                "abc": [
                    0.69392589,
                    0.75,
                    0.43596356
                ],
                "xyz": [
                    6.746904100536369,
                    2.764039575,
                    5.409758522189663
                ],
                "label": "O",
                "properties": {}
            },
            {
                "species": [
                    {
                        "element": "O",
                        "occu": 1
                    }
                ],
                "abc": [
                    0.30607411,
                    0.25,
                    0.56403644
                ],
                "xyz": [
                    2.9758979994636308,
                    0.921346525,
                    6.998981607810337
                ],
                "label": "O",
                "properties": {}
            },
            {
                "species": [
                    {
                        "element": "O",
                        "occu": 1
                    }
                ],
                "abc": [
                    0.19392589,
                    0.75,
                    0.06403644
                ],
                "xyz": [
                    1.8855030505363688,
                    2.764039575,
                    0.7946115428103372
                ],
                "label": "O",
                "properties": {}
            },
            {
                "species": [
                    {
                        "element": "O",
                        "occu": 1
                    }
                ],
                "abc": [
                    0.02617234,
                    0.75,
                    0.2532019
                ],
                "xyz": [
                    0.25446848231391395,
                    2.764039575,
                    3.1419165775222466
                ],
                "label": "O",
                "properties": {}
            }
        ]
    },
    "spacegroup": {
        "source": "spglib",
        "symbol": "Pnma",
        "number": 62,
        "point_group": "mmm",
        "crystal_system": "orthorhombic",
        "hall": "-P 2ac 2n"
    },
    "dielectric": {
        "epsilon_ionic": [
            [
                8.99562394,
                -1.5e-07,
                4.7e-07
            ],
            [
                -1.5e-07,
                18.72571646,
                5.1e-07
            ],
            [
                4.7e-07,
                5.1e-07,
                7.74612603
            ]
        ],
        "epsilon_ionic_avg": 11.822488810000003,
        "epsilon_ionic_eig": [
            8.99562394000018,
            7.746126029999799,
            18.72571646000003
        ],
        "epsilon_electronic": [
            [
                4.72624319,
                -0.0,
                0.0
            ],
            [
                0.0,
                5.64812047,
                0.0
            ],
            [
                0.0,
                0.0,
                4.44330739
            ]
        ],
        "epsilon_electronic_avg": 4.939223683333334,
        "epsilon_electronic_eig": [
            4.72624319,
            5.64812047,
            4.44330739
        ]
    },
    "phonon": {
        "lowest_freq": -0.13695642028668062,
        "frequency": [
            -0.13695642028668062,
            -0.05596360464118332,
            -0.029858186693089497,
            1.8017834898469245,
            2.0592001015084898,
            2.2053333279949876,
            2.558611871796515,
            2.6313832379249766,
            2.754047674108533,
            2.9238074764821396,
            3.0076778932134034,
            3.0176890041422912,
            3.0869853024919407,
            3.2357054676472665,
            3.2536335573883575,
            3.420842985811847,
            3.620408607713075,
            3.719721083908817,
            3.7949338468389837,
            3.933819254202952,
            4.133529177458801,
            4.17526076806682,
            4.450165024331548,
            4.610780327090844,
            4.815501940536933,
            4.819213680183242,
            4.944214398055538,
            5.066780335020237,
            5.156435185573194,
            5.162012397191922,
            5.185027092042696,
            5.431310072275251,
            6.17803386650104,
            6.540553809350104,
            6.5604242951953635,
            6.626785686015174,
            7.097582880566588,
            7.135548655449721,
            7.298488185082076,
            7.354602943568069,
            7.420732198789689,
            7.510635920426818,
            7.523543292781305,
            7.632056670800497,
            7.869205300097981,
            8.095014048509123,
            8.189093176425066,
            8.269016033138447,
            8.354510191372174,
            8.37018753392872,
            8.417398220835327,
            8.440457609582406,
            8.48666227720467,
            8.634237680235007,
            8.666947055745855,
            8.676410710596953,
            8.716943856172911,
            8.759366802957144,
            9.054642574992855,
            9.086167638691256,
            9.638036895043191,
            9.65316890375318,
            9.662831945012643,
            9.80681059285589,
            10.065225080421886,
            10.171605304827505,
            10.751003349135942,
            10.80770993310461,
            11.626180733026365,
            11.834411183525592,
            11.921522799020263,
            12.006841496070962,
            12.846118979092205,
            13.20423025689527,
            13.254540910288918,
            13.261540828860436,
            13.391800314463989,
            13.421194938644629,
            13.80781277833622,
            13.865436542925059,
            14.071858274362457,
            14.076516705600687,
            14.343237689782114,
            14.421250910481914,
            15.236209777066938,
            15.334378256902955,
            15.90846977689498,
            15.92010659994305,
            19.081894238581356,
            19.082820423706035,
            19.637313610793896,
            19.63764864620373,
            23.326664332841514,
            23.52962036299824,
            24.316761691455383,
            24.479241738305955,
            25.21467611711321,
            25.56199861909081,
            25.857116712627057,
            26.423206929306925,
            26.505934368279913,
            27.087265635737435,
            27.142149357659164,
            27.281434562166005,
            28.59718664976558,
            28.793920488759543,
            29.430308741940234,
            30.3162125457685
        ]
    },
    "born_effective_charge": {
        "avg_abs_trace": 2.6937692592592595,
        "tensors": [
            [
                [
                    3.154,
                    -0.0,
                    -0.55465
                ],
                [
                    -9e-05,
                    2.41987,
                    0.00011
                ],
                [
                    0.02721,
                    0.0,
                    3.48866
                ]
            ],
            [
                [
                    3.15376,
                    -0.0,
                    -0.55433
                ],
                [
                    9e-05,
                    2.41987,
                    -0.00011
                ],
                [
                    0.02719,
                    0.0,
                    3.48875
                ]
            ],
            [
                [
                    3.154,
                    -0.0,
                    0.55465
                ],
                [
                    -9e-05,
                    2.41987,
                    -0.00011
                ],
                [
                    -0.02719,
                    0.0,
                    3.48875
                ]
            ],
            [
                [
                    3.15376,
                    -0.0,
                    0.55433
                ],
                [
                    9e-05,
                    2.41987,
                    0.00011
                ],
                [
                    -0.02721,
                    0.0,
                    3.48866
                ]
            ],
            [
                [
                    3.90827,
                    -0.0,
                    0.19051
                ],
                [
                    -0.00282,
                    6.16657,
                    -0.00195
                ],
                [
                    -0.52959,
                    0.0,
                    3.73015
                ]
            ],
            [
                [
                    3.90831,
                    -0.0,
                    0.19144
                ],
                [
                    0.00282,
                    6.16657,
                    0.00195
                ],
                [
                    -0.52951,
                    0.0,
                    3.72957
                ]
            ],
            [
                [
                    3.90827,
                    -0.0,
                    -0.19051
                ],
                [
                    -0.00282,
                    6.16657,
                    0.00195
                ],
                [
                    0.52951,
                    0.0,
                    3.72957
                ]
            ],
            [
                [
                    3.90831,
                    -0.0,
                    -0.19144
                ],
                [
                    0.00282,
                    6.16657,
                    -0.00195
                ],
                [
                    0.52959,
                    0.0,
                    3.73015
                ]
            ],
            [
                [
                    4.03317,
                    0.0,
                    0.57112
                ],
                [
                    -0.00238,
                    6.13594,
                    0.00266
                ],
                [
                    0.21934,
                    -0.0,
                    3.32907
                ]
            ],
            [
                [
                    4.03399,
                    -0.0,
                    0.57152
                ],
                [
                    0.00238,
                    6.13594,
                    -0.00266
                ],
                [
                    0.21966,
                    -0.0,
                    3.32932
                ]
            ],
            [
                [
                    4.03399,
                    -0.0,
                    -0.57152
                ],
                [
                    0.00238,
                    6.13594,
                    0.00266
                ],
                [
                    -0.21934,
                    0.0,
                    3.32907
                ]
            ],
            [
                [
                    4.03317,
                    0.0,
                    -0.57112
                ],
                [
                    -0.00238,
                    6.13594,
                    -0.00266
                ],
                [
                    -0.21966,
                    0.0,
                    3.32932
                ]
            ],
            [
                [
                    -3.19315,
                    -0.0,
                    0.87581
                ],
                [
                    0.00046,
                    -1.30189,
                    -7e-05
                ],
                [
                    0.82515,
                    0.0,
                    -1.82956
                ]
            ],
            [
                [
                    -3.19144,
                    -0.0,
                    0.87485
                ],
                [
                    -0.00046,
                    -1.30189,
                    7e-05
                ],
                [
                    0.8253,
                    0.0,
                    -1.82979
                ]
            ],
            [
                [
                    -3.19315,
                    -0.0,
                    -0.87581
                ],
                [
                    0.00046,
                    -1.30189,
                    7e-05
                ],
                [
                    -0.8253,
                    0.0,
                    -1.82979
                ]
            ],
            [
                [
                    -3.19144,
                    -0.0,
                    -0.87485
                ],
                [
                    -0.00046,
                    -1.30189,
                    -7e-05
                ],
                [
                    -0.82515,
                    -0.0,
                    -1.82956
                ]
            ],
            [
                [
                    -0.64809,
                    -0.0,
                    -0.56066
                ],
                [
                    8e-05,
                    -0.77078,
                    0.00078
                ],
                [
                    -0.21979,
                    0.0,
                    -2.67567
                ]
            ],
            [
                [
                    -0.64833,
                    -0.0,
                    -0.56207
                ],
                [
                    -8e-05,
                    -0.77078,
                    -0.00078
                ],
                [
                    -0.21858,
                    0.0,
                    -2.67582
                ]
            ],
            [
                [
                    -0.64809,
                    -0.0,
                    0.56066
                ],
                [
                    8e-05,
                    -0.77078,
                    -0.00078
                ],
                [
                    0.21858,
                    0.0,
                    -2.67582
                ]
            ],
            [
                [
                    -0.64833,
                    -0.0,
                    0.56207
                ],
                [
                    -8e-05,
                    -0.77078,
                    0.00078
                ],
                [
                    0.21979,
                    0.0,
                    -2.67567
                ]
            ],
            [
                [
                    -1.50843,
                    -0.0,
                    -0.07405
                ],
                [
                    -0.00147,
                    -5.17911,
                    0.00251
                ],
                [
                    0.23223,
                    0.0,
                    -1.03318
                ]
            ],
            [
                [
                    -1.50883,
                    -0.0,
                    -0.07408
                ],
                [
                    0.00147,
                    -5.17911,
                    -0.00251
                ],
                [
                    0.23223,
                    0.0,
                    -1.03333
                ]
            ],
            [
                [
                    -1.50843,
                    -0.0,
                    0.07405
                ],
                [
                    -0.00147,
                    -5.17911,
                    -0.00251
                ],
                [
                    -0.23223,
                    -0.0,
                    -1.03333
                ]
            ],
            [
                [
                    -1.50883,
                    -0.0,
                    0.07408
                ],
                [
                    0.00147,
                    -5.17911,
                    0.00251
                ],
                [
                    -0.23223,
                    0.0,
                    -1.03318
                ]
            ],
            [
                [
                    -3.15105,
                    -0.0,
                    0.47409
                ],
                [
                    -0.00086,
                    -1.22438,
                    0.00038
                ],
                [
                    0.26392,
                    0.0,
                    -1.27605
                ]
            ],
            [
                [
                    -3.15108,
                    -0.0,
                    0.4743
                ],
                [
                    0.00086,
                    -1.22438,
                    -0.00038
                ],
                [
                    0.26433,
                    0.0,
                    -1.27598
                ]
            ],
            [
                [
                    -3.15105,
                    -0.0,
                    -0.47409
                ],
                [
                    -0.00086,
                    -1.22438,
                    -0.00038
                ],
                [
                    -0.26433,
                    0.0,
                    -1.27598
                ]
            ],
            [
                [
                    -3.15108,
                    -0.0,
                    -0.4743
                ],
                [
                    0.00086,
                    -1.22438,
                    0.00038
                ],
                [
                    -0.26392,
                    0.0,
                    -1.27605
                ]
            ],
            [
                [
                    -0.86515,
                    -0.0,
                    0.78904
                ],
                [
                    0.00011,
                    -1.09294,
                    -0.00039
                ],
                [
                    0.53945,
                    0.0,
                    -2.93543
                ]
            ],
            [
                [
                    -0.8655,
                    -0.0,
                    0.78873
                ],
                [
                    -0.00011,
                    -1.09294,
                    0.00039
                ],
                [
                    0.53939,
                    0.0,
                    -2.93454
                ]
            ],
            [
                [
                    -1.73,
                    -0.0,
                    0.11006
                ],
                [
                    -0.00189,
                    -5.15327,
                    -0.00182
                ],
                [
                    0.24218,
                    0.0,
                    -0.7983
                ]
            ],
            [
                [
                    -0.8655,
                    -0.0,
                    -0.78873
                ],
                [
                    -0.00011,
                    -1.09294,
                    -0.00039
                ],
                [
                    -0.53945,
                    0.0,
                    -2.93543
                ]
            ],
            [
                [
                    -1.73044,
                    -0.0,
                    -0.10958
                ],
                [
                    0.00189,
                    -5.15327,
                    -0.00182
                ],
                [
                    -0.24218,
                    0.0,
                    -0.7983
                ]
            ],
            [
                [
                    -1.73,
                    -0.0,
                    -0.11006
                ],
                [
                    -0.00189,
                    -5.15327,
                    0.00182
                ],
                [
                    -0.24233,
                    0.0,
                    -0.79788
                ]
            ],
            [
                [
                    -1.73044,
                    -0.0,
                    0.10958
                ],
                [
                    0.00189,
                    -5.15327,
                    0.00182
                ],
                [
                    0.24233,
                    0.0,
                    -0.79788
                ]
            ],
            [
                [
                    -0.86515,
                    -0.0,
                    -0.78904
                ],
                [
                    0.00011,
                    -1.09294,
                    0.00039
                ],
                [
                    -0.53939,
                    0.0,
                    -2.93454
                ]
            ]
        ]
    },
    "band_gap": 2.6164,
    "is_direct": false,
    "formula": "SrV2O6"
}