{
    "mp_id": "mp-17392",
    "nelements": 4,
    "nsites": 24,
    "elements": [
        "Ge",
        "O",
        "Sr",
        "Zn"
    ],
    "structure": {
        "@module": "pymatgen.core.structure",
        "@class": "Structure",
        "charge": null,
        "lattice": {
            "matrix": [
                [
                    8.11956878,
                    0.0,
                    0.0
                ],
                [
                    0.0,
                    8.11956878,
                    0.0
                ],
                [
                    0.0,
                    0.0,
                    5.34514288
                ]
            ],
            "a": 8.11956878,
            "b": 8.11956878,
            "c": 5.34514288,
            "alpha": 90.0,
            "beta": 90.0,
            "gamma": 90.0,
            "volume": 352.3913575969985
        },
        "sites": [
            {
                "species": [
                    {
                        "element": "Sr",
                        "occu": 1
                    }
                ],
                "abc": [
                    0.16470442,
                    0.66470442,
                    0.50828695
                ],
                "xyz": [
                    1.3373288665600076,
                    5.397113256560007,
                    2.716866371789416
                ],
                "label": "Sr",
                "properties": {}
            },
            {
                "species": [
                    {
                        "element": "Sr",
                        "occu": 1
                    }
                ],
                "abc": [
                    0.66470442,
                    0.83529558,
                    0.49171305
                ],
                "xyz": [
                    5.397113256560007,
                    6.782239913439993,
                    2.628276508210584
                ],
                "label": "Sr",
                "properties": {}
            },
            {
                "species": [
                    {
                        "element": "Sr",
                        "occu": 1
                    }
                ],
                "abc": [
                    0.33529558,
                    0.16470442,
                    0.49171305
                ],
                "xyz": [
                    2.7224555234399923,
                    1.3373288665600076,
                    2.628276508210584
                ],
                "label": "Sr",
                "properties": {}
            },
            {
                "species": [
                    {
                        "element": "Sr",
                        "occu": 1
                    }
                ],
                "abc": [
                    0.83529558,
                    0.33529558,
                    0.50828695
                ],
                "xyz": [
                    6.782239913439993,
                    2.7224555234399923,
                    2.716866371789416
                ],
                "label": "Sr",
                "properties": {}
            },
            {
                "species": [
                    {
                        "element": "Zn",
                        "occu": 1
                    }
                ],
                "abc": [
                    0.0,
                    0.0,
                    0.0
                ],
                "xyz": [
                    0.0,
                    0.0,
                    0.0
                ],
                "label": "Zn",
                "properties": {}
            },
            {
                "species": [
                    {
                        "element": "Zn",
                        "occu": 1
                    }
                ],
                "abc": [
                    0.5,
                    0.5,
                    0.0
                ],
                "xyz": [
                    4.05978439,
                    4.05978439,
                    0.0
                ],
                "label": "Zn",
                "properties": {}
            },
            {
                "species": [
                    {
                        "element": "Ge",
                        "occu": 1
                    }
                ],
                "abc": [
                    0.3552822,
                    0.8552822,
                    0.95653095
                ],
                "xyz": [
                    2.884738259209716,
                    6.944522649209715,
                    5.112794596892136
                ],
                "label": "Ge",
                "properties": {}
            },
            {
                "species": [
                    {
                        "element": "Ge",
                        "occu": 1
                    }
                ],
                "abc": [
                    0.6447178,
                    0.1447178,
                    0.95653095
                ],
                "xyz": [
                    5.234830520790284,
                    1.175046130790284,
                    5.112794596892136
                ],
                "label": "Ge",
                "properties": {}
            },
            {
                "species": [
                    {
                        "element": "Ge",
                        "occu": 1
                    }
                ],
                "abc": [
                    0.8552822,
                    0.6447178,
                    0.04346905
                ],
                "xyz": [
                    6.944522649209715,
                    5.234830520790284,
                    0.232348283107864
                ],
                "label": "Ge",
                "properties": {}
            },
            {
                "species": [
                    {
                        "element": "Ge",
                        "occu": 1
                    }
                ],
                "abc": [
                    0.1447178,
                    0.3552822,
                    0.04346905
                ],
                "xyz": [
                    1.175046130790284,
                    2.884738259209716,
                    0.232348283107864
                ],
                "label": "Ge",
                "properties": {}
            },
            {
                "species": [
                    {
                        "element": "O",
                        "occu": 1
                    }
                ],
                "abc": [
                    0.41685679,
                    0.67323452,
                    0.79383239
                ],
                "xyz": [
                    3.384697377815016,
                    5.466373990210285,
                    4.243147547321883
                ],
                "label": "O",
                "properties": {}
            },
            {
                "species": [
                    {
                        "element": "O",
                        "occu": 1
                    }
                ],
                "abc": [
                    0.58314321,
                    0.32676548,
                    0.79383239
                ],
                "xyz": [
                    4.734871402184984,
                    2.653194789789714,
                    4.243147547321883
                ],
                "label": "O",
                "properties": {}
            },
            {
                "species": [
                    {
                        "element": "O",
                        "occu": 1
                    }
                ],
                "abc": [
                    0.32676548,
                    0.41685679,
                    0.20616761
                ],
                "xyz": [
                    2.653194789789714,
                    3.384697377815016,
                    1.101995332678117
                ],
                "label": "O",
                "properties": {}
            },
            {
                "species": [
                    {
                        "element": "O",
                        "occu": 1
                    }
                ],
                "abc": [
                    0.67323452,
                    0.58314321,
                    0.20616761
                ],
                "xyz": [
                    5.466373990210285,
                    4.734871402184984,
                    1.101995332678117
                ],
                "label": "O",
                "properties": {}
            },
            {
                "species": [
                    {
                        "element": "O",
                        "occu": 1
                    }
                ],
                "abc": [
                    0.17323452,
                    0.91685679,
                    0.79383239
                ],
                "xyz": [
                    1.4065896002102856,
                    7.444481767815016,
                    4.243147547321883
                ],
                "label": "O",
                "properties": {}
            },
            {
                "species": [
                    {
                        "element": "O",
                        "occu": 1
                    }
                ],
                "abc": [
                    0.91685679,
                    0.82676548,
                    0.20616761
                ],
                "xyz": [
                    7.444481767815016,
                    6.7129791797897145,
                    1.101995332678117
                ],
                "label": "O",
                "properties": {}
            },
            {
                "species": [
                    {
                        "element": "O",
                        "occu": 1
                    }
                ],
                "abc": [
                    0.08314321,
                    0.17323452,
                    0.20616761
                ],
                "xyz": [
                    0.6750870121849838,
                    1.4065896002102856,
                    1.101995332678117
                ],
                "label": "O",
                "properties": {}
            },
            {
                "species": [
                    {
                        "element": "O",
                        "occu": 1
                    }
                ],
                "abc": [
                    0.82676548,
                    0.08314321,
                    0.79383239
                ],
                "xyz": [
                    6.7129791797897145,
                    0.6750870121849838,
                    4.243147547321883
                ],
                "label": "O",
                "properties": {}
            },
            {
                "species": [
                    {
                        "element": "O",
                        "occu": 1
                    }
                ],
                "abc": [
                    0.36221435,
                    0.86221435,
                    0.28450248
                ],
                "xyz": [
                    2.9410243279279933,
                    7.000808717927993,
                    1.5207064053143424
                ],
                "label": "O",
                "properties": {}
            },
            {
                "species": [
                    {
                        "element": "O",
                        "occu": 1
                    }
                ],
                "abc": [
                    0.86221435,
                    0.63778565,
                    0.71549752
                ],
                "xyz": [
                    7.000808717927993,
                    5.178544452072007,
                    3.824436474685658
                ],
                "label": "O",
                "properties": {}
            },
            {
                "species": [
                    {
                        "element": "O",
                        "occu": 1
                    }
                ],
                "abc": [
                    0.0,
                    0.5,
                    0.18478102
                ],
                "xyz": [
                    0.0,
                    4.05978439,
                    0.9876809534121376
                ],
                "label": "O",
                "properties": {}
            },
            {
                "species": [
                    {
                        "element": "O",
                        "occu": 1
                    }
                ],
                "abc": [
                    0.5,
                    0.0,
                    0.81521898
                ],
                "xyz": [
                    4.05978439,
                    0.0,
                    4.357461926587862
                ],
                "label": "O",
                "properties": {}
            },
            {
                "species": [
                    {
                        "element": "O",
                        "occu": 1
                    }
                ],
                "abc": [
                    0.63778565,
                    0.13778565,
                    0.28450248
                ],
                "xyz": [
                    5.178544452072007,
                    1.118760062072007,
                    1.5207064053143424
                ],
                "label": "O",
                "properties": {}
            },
            {
                "species": [
                    {
                        "element": "O",
                        "occu": 1
                    }
                ],
                "abc": [
                    0.13778565,
                    0.36221435,
                    0.71549752
                ],
                "xyz": [
                    1.118760062072007,
                    2.9410243279279933,
                    3.824436474685658
                ],
                "label": "O",
                "properties": {}
            }
        ]
    },
    "spacegroup": {
        "source": "spglib",
        "symbol": "P-42_1m",
        "number": 113,
        "point_group": "-42m",
        "crystal_system": "tetragonal",
        "hall": "P -4 2ab"
    },
    "dielectric": {
        "epsilon_ionic": [
            [
                7.37051279,
                -0.0,
                0.0
            ],
            [
                -0.0,
                7.37038512,
                0.0
            ],
            [
                0.0,
                0.0,
                4.50800908
            ]
        ],
        "epsilon_ionic_avg": 6.416302330000001,
        "epsilon_ionic_eig": [
            7.37051279,
            7.37038512,
            4.50800908
        ],
        "epsilon_electronic": [
            [
                3.29049806,
                0.0,
                0.0
            ],
            [
                0.0,
                3.29049806,
                0.0
            ],
            [
                0.0,
                0.0,
                3.31550049
            ]
        ],
        "epsilon_electronic_avg": 3.2988322033333333,
        "epsilon_electronic_eig": [
            3.29049806,
            3.29049806,
            3.31550049
        ]
    },
    "phonon": {
        "lowest_freq": -0.09088135676431876,
        "frequency": [
            -0.09088135676431876,
            -0.07801665497593727,
            -0.07801665497593727,
            1.6452517700150184,
            1.8987271308730924,
            1.8987271308730924,
            2.020562880528239,
            3.0017274259225757,
            3.0017274259225757,
            3.1700387645021246,
            3.1700387645021246,
            3.303943720151754,
            3.4086099511637933,
            3.6115918837093686,
            3.6115918837093686,
            3.857912842034782,
            3.9064215034823255,
            4.002700328881273,
            4.208978781877662,
            4.457105848326781,
            4.457105848326781,
            4.613651536508808,
            4.831229449639092,
            5.378089587153411,
            5.378089587153411,
            5.864731012240145,
            5.886464791270599,
            5.886464791270599,
            6.3751622429170505,
            6.383631412387557,
            6.48671750458327,
            6.48671750458327,
            6.648750102536135,
            6.664241130426852,
            7.146235837919592,
            7.146235837919592,
            7.372362959905466,
            8.219546750452858,
            8.219546750452858,
            8.283624975452152,
            8.794384141421583,
            8.810885998871557,
            8.810885998871557,
            8.856716881335258,
            10.441201405177257,
            11.677130887433501,
            11.677130887433501,
            11.850247013393558,
            12.349879012926241,
            13.160211466015548,
            13.160211466015548,
            13.539565425921703,
            14.016053006965409,
            14.282601245704416,
            14.62076586883529,
            14.62076586883529,
            15.085825591393066,
            15.416573129050066,
            20.827245495475065,
            20.827245495475065,
            20.956484131566768,
            20.956484131566768,
            21.48809222751202,
            22.45169589741885,
            22.5237480401632,
            22.593795404052933,
            22.593795404052933,
            23.12118201158359,
            23.1712155029094,
            23.347497389911798,
            24.929365814109925,
            24.929365814109925
        ]
    },
    "born_effective_charge": {
        "avg_abs_trace": 2.14426875,
        "tensors": [
            [
                [
                    2.4015,
                    0.31778,
                    0.15102
                ],
                [
                    0.31775,
                    2.40145,
                    0.15101
                ],
                [
                    -0.01653,
                    -0.01653,
                    2.67782
                ]
            ],
            [
                [
                    2.4015,
                    -0.31778,
                    -0.15102
                ],
                [
                    -0.31779,
                    2.40143,
                    0.15098
                ],
                [
                    0.01638,
                    -0.01638,
                    2.67769
                ]
            ],
            [
                [
                    2.40149,
                    -0.31784,
                    0.151
                ],
                [
                    -0.31775,
                    2.40145,
                    -0.15101
                ],
                [
                    -0.01638,
                    0.01638,
                    2.67769
                ]
            ],
            [
                [
                    2.40149,
                    0.31784,
                    -0.151
                ],
                [
                    0.31779,
                    2.40143,
                    -0.15098
                ],
                [
                    0.01653,
                    0.01653,
                    2.67782
                ]
            ],
            [
                [
                    2.26801,
                    -0.05612,
                    -2e-05
                ],
                [
                    0.05613,
                    2.26806,
                    3e-05
                ],
                [
                    -0.0,
                    -0.0,
                    1.40807
                ]
            ],
            [
                [
                    2.26801,
                    0.05612,
                    2e-05
                ],
                [
                    -0.05613,
                    2.26806,
                    -3e-05
                ],
                [
                    -0.0,
                    -0.0,
                    1.40807
                ]
            ],
            [
                [
                    2.98362,
                    0.04787,
                    -0.03575
                ],
                [
                    0.04786,
                    2.98365,
                    -0.03576
                ],
                [
                    0.02971,
                    0.02971,
                    2.87843
                ]
            ],
            [
                [
                    2.98363,
                    0.0479,
                    0.03574
                ],
                [
                    0.04791,
                    2.98367,
                    0.03575
                ],
                [
                    -0.02971,
                    -0.02971,
                    2.87843
                ]
            ],
            [
                [
                    2.98362,
                    -0.04787,
                    0.03575
                ],
                [
                    -0.04791,
                    2.98367,
                    -0.03575
                ],
                [
                    -0.02979,
                    0.02979,
                    2.87831
                ]
            ],
            [
                [
                    2.98363,
                    -0.0479,
                    -0.03574
                ],
                [
                    -0.04786,
                    2.98365,
                    0.03576
                ],
                [
                    0.02979,
                    -0.02979,
                    2.87831
                ]
            ],
            [
                [
                    -1.68932,
                    0.19793,
                    -0.1097
                ],
                [
                    0.28314,
                    -2.18846,
                    -0.09578
                ],
                [
                    -0.11433,
                    0.01738,
                    -1.59686
                ]
            ],
            [
                [
                    -1.68929,
                    0.1979,
                    0.10965
                ],
                [
                    0.28303,
                    -2.18842,
                    0.09586
                ],
                [
                    0.11433,
                    -0.01738,
                    -1.59686
                ]
            ],
            [
                [
                    -2.18843,
                    -0.28303,
                    -0.09583
                ],
                [
                    -0.19791,
                    -1.68933,
                    0.10972
                ],
                [
                    0.0176,
                    0.11454,
                    -1.59669
                ]
            ],
            [
                [
                    -2.18849,
                    -0.28314,
                    0.09577
                ],
                [
                    -0.19789,
                    -1.68932,
                    -0.10966
                ],
                [
                    -0.0176,
                    -0.11454,
                    -1.59669
                ]
            ],
            [
                [
                    -2.18849,
                    0.28314,
                    -0.09577
                ],
                [
                    0.19791,
                    -1.68933,
                    -0.10972
                ],
                [
                    0.01738,
                    -0.11433,
                    -1.59686
                ]
            ],
            [
                [
                    -1.68932,
                    -0.19793,
                    0.1097
                ],
                [
                    -0.28303,
                    -2.18842,
                    -0.09586
                ],
                [
                    0.11454,
                    0.0176,
                    -1.59669
                ]
            ],
            [
                [
                    -1.68929,
                    -0.1979,
                    -0.10965
                ],
                [
                    -0.28314,
                    -2.18846,
                    0.09578
                ],
                [
                    -0.11454,
                    -0.0176,
                    -1.59669
                ]
            ],
            [
                [
                    -2.18843,
                    0.28303,
                    0.09583
                ],
                [
                    0.19789,
                    -1.68932,
                    0.10966
                ],
                [
                    -0.01738,
                    0.11433,
                    -1.59686
                ]
            ],
            [
                [
                    -1.54953,
                    -0.0997,
                    0.01357
                ],
                [
                    -0.09972,
                    -1.54954,
                    0.01355
                ],
                [
                    -0.02366,
                    -0.02366,
                    -2.22296
                ]
            ],
            [
                [
                    -1.54953,
                    0.0997,
                    -0.01357
                ],
                [
                    0.09966,
                    -1.54958,
                    0.01359
                ],
                [
                    0.02362,
                    -0.02362,
                    -2.22272
                ]
            ],
            [
                [
                    -2.18361,
                    0.80565,
                    -3e-05
                ],
                [
                    0.80559,
                    -2.18362,
                    -2e-05
                ],
                [
                    -0.0,
                    -0.0,
                    -1.68747
                ]
            ],
            [
                [
                    -2.18361,
                    -0.80565,
                    3e-05
                ],
                [
                    -0.80559,
                    -2.18362,
                    2e-05
                ],
                [
                    -0.0,
                    -0.0,
                    -1.68762
                ]
            ],
            [
                [
                    -1.54958,
                    -0.09965,
                    -0.0136
                ],
                [
                    -0.09966,
                    -1.54958,
                    -0.01359
                ],
                [
                    0.02366,
                    0.02366,
                    -2.22296
                ]
            ],
            [
                [
                    -1.54958,
                    0.09965,
                    0.0136
                ],
                [
                    0.09972,
                    -1.54954,
                    -0.01355
                ],
                [
                    -0.02362,
                    0.02362,
                    -2.22272
                ]
            ]
        ]
    },
    "band_gap": 3.1616,
    "is_direct": true,
    "formula": "Sr2ZnGe2O7"
}