{
    "mp_id": "mp-19005",
    "nelements": 3,
    "nsites": 19,
    "elements": [
        "O",
        "W",
        "Y"
    ],
    "structure": {
        "@module": "pymatgen.core.structure",
        "@class": "Structure",
        "charge": null,
        "lattice": {
            "matrix": [
                [
                    4.85297443,
                    2.80186601,
                    3.09204346
                ],
                [
                    -4.85297445,
                    2.80186598,
                    3.09204346
                ],
                [
                    2e-08,
                    -5.603732,
                    3.09204346
                ]
            ],
            "a": 6.400198958997753,
            "b": 6.400198961029488,
            "c": 6.400198831782711,
            "alpha": 98.62097266776978,
            "beta": 98.6209726337347,
            "gamma": 98.62097491775802,
            "volume": 252.26221499874032
        },
        "sites": [
            {
                "species": [
                    {
                        "element": "Y",
                        "occu": 1
                    }
                ],
                "abc": [
                    0.14368098,
                    0.31477084,
                    0.61166846
                ],
                "xyz": [
                    -0.8302947098743272,
                    -2.1431055604552065,
                    3.3088584131873686
                ],
                "label": "Y",
                "properties": {}
            },
            {
                "species": [
                    {
                        "element": "Y",
                        "occu": 1
                    }
                ],
                "abc": [
                    0.68522916,
                    0.38833154,
                    0.85631902
                ],
                "xyz": [
                    1.440836567547606,
                    -1.790609071230779,
                    5.967271966812632
                ],
                "label": "Y",
                "properties": {}
            },
            {
                "species": [
                    {
                        "element": "Y",
                        "occu": 1
                    }
                ],
                "abc": [
                    0.38833154,
                    0.85631902,
                    0.68522916
                ],
                "xyz": [
                    -2.271131277421934,
                    -0.3524964985232244,
                    5.967271966812632
                ],
                "label": "Y",
                "properties": {}
            },
            {
                "species": [
                    {
                        "element": "Y",
                        "occu": 1
                    }
                ],
                "abc": [
                    0.85631902,
                    0.68522916,
                    0.38833154
                ],
                "xyz": [
                    0.8302947098743275,
                    2.143105550455207,
                    5.967271966812632
                ],
                "label": "Y",
                "properties": {}
            },
            {
                "species": [
                    {
                        "element": "Y",
                        "occu": 1
                    }
                ],
                "abc": [
                    0.31477084,
                    0.61166846,
                    0.14368098
                ],
                "xyz": [
                    -1.440836567547606,
                    1.790609061230779,
                    3.308858413187369
                ],
                "label": "Y",
                "properties": {}
            },
            {
                "species": [
                    {
                        "element": "Y",
                        "occu": 1
                    }
                ],
                "abc": [
                    0.61166846,
                    0.14368098,
                    0.31477084
                ],
                "xyz": [
                    2.271131277421933,
                    0.3524964885232251,
                    3.3088584131873686
                ],
                "label": "Y",
                "properties": {}
            },
            {
                "species": [
                    {
                        "element": "W",
                        "occu": 1
                    }
                ],
                "abc": [
                    0.0,
                    0.0,
                    0.0
                ],
                "xyz": [
                    0.0,
                    0.0,
                    0.0
                ],
                "label": "W",
                "properties": {}
            },
            {
                "species": [
                    {
                        "element": "O",
                        "occu": 1
                    }
                ],
                "abc": [
                    0.43258344,
                    0.17702747,
                    0.59139091
                ],
                "xyz": [
                    1.240206596131116,
                    -1.6059480841327751,
                    3.7135498229790977
                ],
                "label": "O",
                "properties": {}
            },
            {
                "species": [
                    {
                        "element": "O",
                        "occu": 1
                    }
                ],
                "abc": [
                    0.17702747,
                    0.59139091,
                    0.43258344
                ],
                "xyz": [
                    -2.0108951822229884,
                    -0.2710763427585432,
                    3.7135498229790973
                ],
                "label": "O",
                "properties": {}
            },
            {
                "species": [
                    {
                        "element": "O",
                        "occu": 1
                    }
                ],
                "abc": [
                    0.59139091,
                    0.43258344,
                    0.17702747
                ],
                "xyz": [
                    0.7706885860918729,
                    1.8770244148813005,
                    3.7135498229790977
                ],
                "label": "O",
                "properties": {}
            },
            {
                "species": [
                    {
                        "element": "O",
                        "occu": 1
                    }
                ],
                "abc": [
                    0.56741656,
                    0.82297253,
                    0.40860909
                ],
                "xyz": [
                    -1.2402065961311164,
                    1.6059480741327747,
                    5.562580557020904
                ],
                "label": "O",
                "properties": {}
            },
            {
                "species": [
                    {
                        "element": "O",
                        "occu": 1
                    }
                ],
                "abc": [
                    0.82297253,
                    0.40860909,
                    0.56741656
                ],
                "xyz": [
                    2.0108951822229884,
                    0.2710763327585437,
                    5.562580557020904
                ],
                "label": "O",
                "properties": {}
            },
            {
                "species": [
                    {
                        "element": "O",
                        "occu": 1
                    }
                ],
                "abc": [
                    0.40860909,
                    0.56741656,
                    0.82297253
                ],
                "xyz": [
                    -0.7706885860918723,
                    -1.8770244248813013,
                    5.562580557020903
                ],
                "label": "O",
                "properties": {}
            },
            {
                "species": [
                    {
                        "element": "O",
                        "occu": 1
                    }
                ],
                "abc": [
                    0.03337678,
                    0.92511794,
                    0.70304898
                ],
                "xyz": [
                    -4.327597052099917,
                    -1.2541243178144308,
                    5.137565331089203
                ],
                "label": "O",
                "properties": {}
            },
            {
                "species": [
                    {
                        "element": "O",
                        "occu": 1
                    }
                ],
                "abc": [
                    0.29695102,
                    0.96662322,
                    0.07488206
                ],
                "xyz": [
                    -3.249902080916669,
                    3.120746689320966,
                    4.138565048910799
                ],
                "label": "O",
                "properties": {}
            },
            {
                "species": [
                    {
                        "element": "O",
                        "occu": 1
                    }
                ],
                "abc": [
                    0.07488206,
                    0.29695102,
                    0.96662322
                ],
                "xyz": [
                    -1.0776949711832489,
                    -4.374871010519959,
                    4.138565048910799
                ],
                "label": "O",
                "properties": {}
            },
            {
                "species": [
                    {
                        "element": "O",
                        "occu": 1
                    }
                ],
                "abc": [
                    0.96662322,
                    0.07488206,
                    0.29695102
                ],
                "xyz": [
                    4.327597052099918,
                    1.2541243078144306,
                    4.138565048910799
                ],
                "label": "O",
                "properties": {}
            },
            {
                "species": [
                    {
                        "element": "O",
                        "occu": 1
                    }
                ],
                "abc": [
                    0.70304898,
                    0.03337678,
                    0.92511794
                ],
                "xyz": [
                    3.2499020809166694,
                    -3.120746699320966,
                    5.137565331089203
                ],
                "label": "O",
                "properties": {}
            },
            {
                "species": [
                    {
                        "element": "O",
                        "occu": 1
                    }
                ],
                "abc": [
                    0.92511794,
                    0.70304898,
                    0.03337678
                ],
                "xyz": [
                    1.0776949711832484,
                    4.37487100051996,
                    5.137565331089203
                ],
                "label": "O",
                "properties": {}
            }
        ]
    },
    "spacegroup": {
        "source": "spglib",
        "symbol": "R-3",
        "number": 148,
        "point_group": "-3",
        "crystal_system": "trigonal",
        "hall": "-R 3"
    },
    "dielectric": {
        "epsilon_ionic": [
            [
                17.91940944,
                2.19e-06,
                6.9e-06
            ],
            [
                2.19e-06,
                17.91940205,
                2.6e-07
            ],
            [
                6.9e-06,
                2.6e-07,
                12.05695661
            ]
        ],
        "epsilon_ionic_avg": 15.965256033333333,
        "epsilon_ionic_eig": [
            12.056956609991873,
            17.919410040252163,
            17.91940144975596
        ],
        "epsilon_electronic": [
            [
                4.64523435,
                9.2e-07,
                -0.0
            ],
            [
                -9.2e-07,
                4.64523486,
                0.0
            ],
            [
                0.0,
                0.0,
                4.40732066
            ]
        ],
        "epsilon_electronic_avg": 4.565929956666667,
        "epsilon_electronic_eig": [
            4.645234605000001,
            4.645234605000001,
            4.40732066
        ]
    },
    "phonon": {
        "lowest_freq": -0.03856672245865646,
        "frequency": [
            -0.03856672245865646,
            -0.03856672033573699,
            -0.03484368348211779,
            3.3307712220210646,
            3.3307712697157497,
            3.7192462477518666,
            3.8277720364369197,
            3.8277721609428315,
            4.447905535841846,
            4.839077414515103,
            4.839077482697557,
            4.917642608444314,
            4.956820769269155,
            4.956820892533712,
            5.027182233857554,
            6.13863577449377,
            6.434975450919623,
            6.434975602839474,
            6.467886894580762,
            6.467886951260818,
            7.409572851356568,
            7.6576607830344505,
            7.657660830908104,
            8.041789436991646,
            8.042024509969087,
            8.578229397794676,
            8.578229568739134,
            9.908637151863493,
            9.942548925043752,
            9.94254920772795,
            10.25795717777351,
            10.257957308813316,
            10.515150632454635,
            10.804551937633818,
            10.804552062044412,
            11.560813172314324,
            11.70831742895758,
            11.708317585513035,
            12.136649612024456,
            12.242803551176728,
            12.743517160766057,
            12.743517678582554,
            12.965768693561307,
            12.965768768959885,
            13.779971826479349,
            14.847042713889927,
            16.010318058255397,
            16.390557575612842,
            16.390557724723163,
            17.186235611728787,
            17.186236038349485,
            17.25800943953988,
            17.53515449696755,
            17.535154566656164,
            19.314604114431745,
            19.31460455730929,
            22.985663601140928
        ]
    },
    "born_effective_charge": {
        "avg_abs_trace": 3.241988070175439,
        "tensors": [
            [
                [
                    4.03076,
                    -0.27889,
                    0.32535
                ],
                [
                    -0.20885,
                    3.76498,
                    -0.18363
                ],
                [
                    0.41212,
                    0.19151,
                    3.84346
                ]
            ],
            [
                [
                    4.04271,
                    0.20197,
                    -0.32181
                ],
                [
                    0.27206,
                    3.75315,
                    -0.18998
                ],
                [
                    -0.04022,
                    -0.45263,
                    3.84345
                ]
            ],
            [
                [
                    3.62026,
                    -0.02824,
                    -0.00359
                ],
                [
                    0.0419,
                    4.17557,
                    0.37364
                ],
                [
                    -0.37188,
                    0.26114,
                    3.84345
                ]
            ],
            [
                [
                    4.03081,
                    -0.27893,
                    0.32541
                ],
                [
                    -0.20877,
                    3.76503,
                    -0.18372
                ],
                [
                    0.41209,
                    0.19148,
                    3.84345
                ]
            ],
            [
                [
                    4.04261,
                    0.20197,
                    -0.32171
                ],
                [
                    0.27206,
                    3.75312,
                    -0.18993
                ],
                [
                    -0.04021,
                    -0.45266,
                    3.84346
                ]
            ],
            [
                [
                    3.62024,
                    -0.02816,
                    -0.00365
                ],
                [
                    0.04188,
                    4.17552,
                    0.37361
                ],
                [
                    -0.37191,
                    0.26115,
                    3.84346
                ]
            ],
            [
                [
                    8.10038,
                    0.27823,
                    -0.0
                ],
                [
                    -0.27823,
                    8.10038,
                    -0.0
                ],
                [
                    0.0,
                    -0.0,
                    6.36043
                ]
            ],
            [
                [
                    -2.79916,
                    -0.19153,
                    0.05776
                ],
                [
                    -0.23513,
                    -2.51911,
                    -0.16629
                ],
                [
                    -0.055,
                    -0.03521,
                    -2.35278
                ]
            ],
            [
                [
                    -2.40438,
                    0.00721,
                    -0.17291
                ],
                [
                    -0.0364,
                    -2.9139,
                    0.03313
                ],
                [
                    -0.00299,
                    0.06523,
                    -2.35278
                ]
            ],
            [
                [
                    -2.77387,
                    0.24972,
                    0.11513
                ],
                [
                    0.20612,
                    -2.54441,
                    0.13316
                ],
                [
                    0.05799,
                    -0.03003,
                    -2.35278
                ]
            ],
            [
                [
                    -2.79916,
                    -0.1915,
                    0.05775
                ],
                [
                    -0.23511,
                    -2.51913,
                    -0.16629
                ],
                [
                    -0.05499,
                    -0.03519,
                    -2.35279
                ]
            ],
            [
                [
                    -2.4044,
                    0.00719,
                    -0.17288
                ],
                [
                    -0.03641,
                    -2.91388,
                    0.03312
                ],
                [
                    -0.00298,
                    0.06522,
                    -2.35279
                ]
            ],
            [
                [
                    -2.77386,
                    0.24973,
                    0.11513
                ],
                [
                    0.20612,
                    -2.54441,
                    0.13317
                ],
                [
                    0.05797,
                    -0.03003,
                    -2.35279
                ]
            ],
            [
                [
                    -1.93039,
                    -0.72991,
                    0.33497
                ],
                [
                    -0.66365,
                    -3.24723,
                    1.01458
                ],
                [
                    0.41713,
                    1.17309,
                    -2.55073
                ]
            ],
            [
                [
                    -3.52147,
                    -0.25493,
                    -1.04618
                ],
                [
                    -0.18871,
                    -1.65617,
                    -0.21727
                ],
                [
                    -1.22446,
                    -0.2253,
                    -2.55075
                ]
            ],
            [
                [
                    -2.31461,
                    0.88547,
                    0.71123
                ],
                [
                    0.95174,
                    -2.86303,
                    -0.79738
                ],
                [
                    0.80735,
                    -0.94777,
                    -2.55075
                ]
            ],
            [
                [
                    -1.93039,
                    -0.72992,
                    0.33494
                ],
                [
                    -0.66367,
                    -3.24726,
                    1.01465
                ],
                [
                    0.41712,
                    1.17307,
                    -2.55075
                ]
            ],
            [
                [
                    -3.52147,
                    -0.25496,
                    -1.04614
                ],
                [
                    -0.18868,
                    -1.65617,
                    -0.2172
                ],
                [
                    -1.22449,
                    -0.2253,
                    -2.55073
                ]
            ],
            [
                [
                    -2.31458,
                    0.88548,
                    0.71118
                ],
                [
                    0.95173,
                    -2.86305,
                    -0.7974
                ],
                [
                    0.80736,
                    -0.94779,
                    -2.55073
                ]
            ]
        ]
    },
    "band_gap": 3.2573,
    "is_direct": false,
    "formula": "Y6WO12"
}