{
    "mp_id": "mp-14100",
    "nelements": 3,
    "nsites": 14,
    "elements": [
        "Cd",
        "O",
        "Rh"
    ],
    "structure": {
        "@module": "pymatgen.core.structure",
        "@class": "Structure",
        "charge": null,
        "lattice": {
            "matrix": [
                [
                    0.0,
                    4.37161741,
                    4.37161741
                ],
                [
                    4.37161741,
                    0.0,
                    4.37161741
                ],
                [
                    4.37161741,
                    4.37161741,
                    0.0
                ]
            ],
            "a": 6.182400630728343,
            "b": 6.182400630728343,
            "c": 6.182400630728343,
            "alpha": 59.99999999999999,
            "beta": 59.99999999999999,
            "gamma": 59.99999999999999,
            "volume": 167.09229970255245
        },
        "sites": [
            {
                "species": [
                    {
                        "element": "Cd",
                        "occu": 1
                    }
                ],
                "abc": [
                    0.0,
                    0.0,
                    0.0
                ],
                "xyz": [
                    0.0,
                    0.0,
                    0.0
                ],
                "label": "Cd",
                "properties": {}
            },
            {
                "species": [
                    {
                        "element": "Cd",
                        "occu": 1
                    }
                ],
                "abc": [
                    0.25,
                    0.25,
                    0.25
                ],
                "xyz": [
                    2.185808705,
                    2.185808705,
                    2.185808705
                ],
                "label": "Cd",
                "properties": {}
            },
            {
                "species": [
                    {
                        "element": "Rh",
                        "occu": 1
                    }
                ],
                "abc": [
                    0.625,
                    0.625,
                    0.625
                ],
                "xyz": [
                    5.4645217624999995,
                    5.4645217624999995,
                    5.4645217624999995
                ],
                "label": "Rh",
                "properties": {}
            },
            {
                "species": [
                    {
                        "element": "Rh",
                        "occu": 1
                    }
                ],
                "abc": [
                    0.125,
                    0.625,
                    0.625
                ],
                "xyz": [
                    5.4645217624999995,
                    3.2787130574999996,
                    3.2787130574999996
                ],
                "label": "Rh",
                "properties": {}
            },
            {
                "species": [
                    {
                        "element": "Rh",
                        "occu": 1
                    }
                ],
                "abc": [
                    0.625,
                    0.625,
                    0.125
                ],
                "xyz": [
                    3.2787130574999996,
                    3.2787130574999996,
                    5.4645217624999995
                ],
                "label": "Rh",
                "properties": {}
            },
            {
                "species": [
                    {
                        "element": "Rh",
                        "occu": 1
                    }
                ],
                "abc": [
                    0.625,
                    0.125,
                    0.625
                ],
                "xyz": [
                    3.2787130574999996,
                    5.4645217624999995,
                    3.2787130574999996
                ],
                "label": "Rh",
                "properties": {}
            },
            {
                "species": [
                    {
                        "element": "O",
                        "occu": 1
                    }
                ],
                "abc": [
                    0.3933097,
                    0.8200719,
                    0.3933097
                ],
                "xyz": [
                    5.304440127533656,
                    3.438799064083754,
                    5.304440127533656
                ],
                "label": "O",
                "properties": {}
            },
            {
                "species": [
                    {
                        "element": "O",
                        "occu": 1
                    }
                ],
                "abc": [
                    0.8566903,
                    0.8566903,
                    0.4299281
                ],
                "xyz": [
                    5.624603397466344,
                    5.624603397466344,
                    7.490244460916246
                ],
                "label": "O",
                "properties": {}
            },
            {
                "species": [
                    {
                        "element": "O",
                        "occu": 1
                    }
                ],
                "abc": [
                    0.8566903,
                    0.8566903,
                    0.8566903
                ],
                "xyz": [
                    7.490244460916246,
                    7.490244460916246,
                    7.490244460916246
                ],
                "label": "O",
                "properties": {}
            },
            {
                "species": [
                    {
                        "element": "O",
                        "occu": 1
                    }
                ],
                "abc": [
                    0.4299281,
                    0.8566903,
                    0.8566903
                ],
                "xyz": [
                    7.490244460916246,
                    5.624603397466344,
                    5.624603397466344
                ],
                "label": "O",
                "properties": {}
            },
            {
                "species": [
                    {
                        "element": "O",
                        "occu": 1
                    }
                ],
                "abc": [
                    0.3933097,
                    0.3933097,
                    0.3933097
                ],
                "xyz": [
                    3.438799064083754,
                    3.438799064083754,
                    3.438799064083754
                ],
                "label": "O",
                "properties": {}
            },
            {
                "species": [
                    {
                        "element": "O",
                        "occu": 1
                    }
                ],
                "abc": [
                    0.8200719,
                    0.3933097,
                    0.3933097
                ],
                "xyz": [
                    3.438799064083754,
                    5.304440127533656,
                    5.304440127533656
                ],
                "label": "O",
                "properties": {}
            },
            {
                "species": [
                    {
                        "element": "O",
                        "occu": 1
                    }
                ],
                "abc": [
                    0.8566903,
                    0.4299281,
                    0.8566903
                ],
                "xyz": [
                    5.624603397466344,
                    7.490244460916246,
                    5.624603397466344
                ],
                "label": "O",
                "properties": {}
            },
            {
                "species": [
                    {
                        "element": "O",
                        "occu": 1
                    }
                ],
                "abc": [
                    0.3933097,
                    0.3933097,
                    0.8200719
                ],
                "xyz": [
                    5.304440127533656,
                    5.304440127533656,
                    3.438799064083754
                ],
                "label": "O",
                "properties": {}
            }
        ]
    },
    "spacegroup": {
        "source": "spglib",
        "symbol": "Fd-3m",
        "number": 227,
        "point_group": "m-3m",
        "crystal_system": "cubic",
        "hall": "F 4d 2 3 -1d"
    },
    "dielectric": {
        "epsilon_ionic": [
            [
                3.16583277,
                0.0,
                -0.0
            ],
            [
                0.0,
                3.16577516,
                0.0
            ],
            [
                -0.0,
                0.0,
                3.16580425
            ]
        ],
        "epsilon_ionic_avg": 3.1658040600000006,
        "epsilon_ionic_eig": [
            3.16583277,
            3.16577516,
            3.16580425
        ],
        "epsilon_electronic": [
            [
                7.09118641,
                -0.0,
                0.0
            ],
            [
                0.0,
                7.09118641,
                -0.0
            ],
            [
                -0.0,
                -0.0,
                7.09118641
            ]
        ],
        "epsilon_electronic_avg": 7.09118641,
        "epsilon_electronic_eig": [
            7.09118641,
            7.09118641,
            7.09118641
        ]
    },
    "phonon": {
        "lowest_freq": -0.015890636750912273,
        "frequency": [
            -0.015890636750912273,
            -0.015890636750912273,
            -0.015890636750912273,
            3.6228024208900353,
            3.6228024208900353,
            3.6228024208900353,
            4.153039616743595,
            4.153039616743595,
            4.153039616743595,
            5.3555987486025165,
            5.3555987486025165,
            5.3555987486025165,
            8.434104692444281,
            8.434104692444281,
            8.889791881217617,
            8.889791881217617,
            8.889791881217617,
            11.121529987980585,
            13.987548401733049,
            13.987548401733049,
            14.250827890599295,
            14.250827890599295,
            14.250827890599295,
            14.633349744103585,
            14.633349744103585,
            14.633349744103585,
            14.78252570713565,
            14.78252570713565,
            14.99576937311252,
            14.99576937311252,
            14.99576937311252,
            16.244924357709813,
            16.244924357709813,
            16.244924357709813,
            16.75469550632528,
            16.75469550632528,
            16.75469550632528,
            18.332930362375915,
            18.332930362375915,
            18.332930362375915,
            18.591717654110088,
            18.725516602515334
        ]
    },
    "born_effective_charge": {
        "avg_abs_trace": 2.0755614285714286,
        "tensors": [
            [
                [
                    2.39659,
                    -0.0,
                    -0.0
                ],
                [
                    -0.0,
                    2.39656,
                    -0.0
                ],
                [
                    0.0,
                    -0.0,
                    2.3966
                ]
            ],
            [
                [
                    2.39659,
                    -0.0,
                    -0.0
                ],
                [
                    -0.0,
                    2.39656,
                    -0.0
                ],
                [
                    0.0,
                    0.0,
                    2.3966
                ]
            ],
            [
                [
                    2.43404,
                    0.89638,
                    0.89638
                ],
                [
                    0.89639,
                    2.434,
                    0.89639
                ],
                [
                    0.89639,
                    0.89639,
                    2.43378
                ]
            ],
            [
                [
                    2.43404,
                    -0.89638,
                    -0.89638
                ],
                [
                    -0.89639,
                    2.434,
                    0.89639
                ],
                [
                    -0.89639,
                    0.89639,
                    2.43378
                ]
            ],
            [
                [
                    2.43404,
                    0.89638,
                    -0.89638
                ],
                [
                    0.89639,
                    2.434,
                    -0.89639
                ],
                [
                    -0.89639,
                    -0.89639,
                    2.43378
                ]
            ],
            [
                [
                    2.43404,
                    -0.89638,
                    0.89638
                ],
                [
                    -0.89639,
                    2.434,
                    -0.89639
                ],
                [
                    0.89639,
                    -0.89639,
                    2.43378
                ]
            ],
            [
                [
                    -1.81631,
                    -0.15526,
                    0.15526
                ],
                [
                    -0.15526,
                    -1.81615,
                    -0.15526
                ],
                [
                    0.15537,
                    -0.15537,
                    -1.81605
                ]
            ],
            [
                [
                    -1.81603,
                    0.15523,
                    -0.15523
                ],
                [
                    0.15526,
                    -1.81615,
                    -0.15526
                ],
                [
                    -0.15537,
                    -0.15537,
                    -1.81605
                ]
            ],
            [
                [
                    -1.81631,
                    0.15526,
                    0.15526
                ],
                [
                    0.15526,
                    -1.81614,
                    0.15526
                ],
                [
                    0.15537,
                    0.15537,
                    -1.81605
                ]
            ],
            [
                [
                    -1.81631,
                    -0.15526,
                    -0.15526
                ],
                [
                    -0.15526,
                    -1.81615,
                    0.15526
                ],
                [
                    -0.15537,
                    0.15537,
                    -1.81602
                ]
            ],
            [
                [
                    -1.81603,
                    0.15523,
                    0.15523
                ],
                [
                    0.15526,
                    -1.81615,
                    0.15526
                ],
                [
                    0.15537,
                    0.15537,
                    -1.81602
                ]
            ],
            [
                [
                    -1.81603,
                    -0.15523,
                    -0.15523
                ],
                [
                    -0.15526,
                    -1.81614,
                    0.15526
                ],
                [
                    -0.15537,
                    0.15537,
                    -1.81605
                ]
            ],
            [
                [
                    -1.81603,
                    -0.15523,
                    0.15523
                ],
                [
                    -0.15526,
                    -1.81614,
                    -0.15526
                ],
                [
                    0.15537,
                    -0.15537,
                    -1.81602
                ]
            ],
            [
                [
                    -1.81631,
                    0.15526,
                    -0.15526
                ],
                [
                    0.15526,
                    -1.81614,
                    -0.15526
                ],
                [
                    -0.15537,
                    -0.15537,
                    -1.81602
                ]
            ]
        ]
    },
    "band_gap": 1.6538000000000004,
    "is_direct": false,
    "formula": "Cd(RhO2)2"
}