{
    "mp_id": "mp-1191101",
    "nelements": 4,
    "nsites": 24,
    "elements": [
        "B",
        "K",
        "Mg",
        "O"
    ],
    "structure": {
        "@module": "pymatgen.core.structure",
        "@class": "Structure",
        "charge": null,
        "lattice": {
            "matrix": [
                [
                    6.83469452,
                    0.0,
                    0.0
                ],
                [
                    0.0,
                    6.83469452,
                    0.0
                ],
                [
                    0.0,
                    0.0,
                    6.83469452
                ]
            ],
            "a": 6.83469452,
            "b": 6.83469452,
            "c": 6.83469452,
            "alpha": 90.0,
            "beta": 90.0,
            "gamma": 90.0,
            "volume": 319.26942125477876
        },
        "sites": [
            {
                "species": [
                    {
                        "element": "K",
                        "occu": 1
                    }
                ],
                "abc": [
                    0.36492657,
                    0.86492657,
                    0.63507343
                ],
                "xyz": [
                    2.4941616281813963,
                    5.911508888181396,
                    4.340532891818604
                ],
                "label": "K",
                "properties": {}
            },
            {
                "species": [
                    {
                        "element": "K",
                        "occu": 1
                    }
                ],
                "abc": [
                    0.86492657,
                    0.63507343,
                    0.36492657
                ],
                "xyz": [
                    5.911508888181396,
                    4.340532891818604,
                    2.4941616281813963
                ],
                "label": "K",
                "properties": {}
            },
            {
                "species": [
                    {
                        "element": "K",
                        "occu": 1
                    }
                ],
                "abc": [
                    0.63507343,
                    0.36492657,
                    0.86492657
                ],
                "xyz": [
                    4.340532891818604,
                    2.4941616281813963,
                    5.911508888181396
                ],
                "label": "K",
                "properties": {}
            },
            {
                "species": [
                    {
                        "element": "K",
                        "occu": 1
                    }
                ],
                "abc": [
                    0.13507343,
                    0.13507343,
                    0.13507343
                ],
                "xyz": [
                    0.9231856318186036,
                    0.9231856318186036,
                    0.9231856318186036
                ],
                "label": "K",
                "properties": {}
            },
            {
                "species": [
                    {
                        "element": "Mg",
                        "occu": 1
                    }
                ],
                "abc": [
                    0.64390672,
                    0.14390672,
                    0.35609328
                ],
                "xyz": [
                    4.400905730575174,
                    0.9835584705751743,
                    2.433788789424826
                ],
                "label": "Mg",
                "properties": {}
            },
            {
                "species": [
                    {
                        "element": "Mg",
                        "occu": 1
                    }
                ],
                "abc": [
                    0.14390672,
                    0.35609328,
                    0.64390672
                ],
                "xyz": [
                    0.9835584705751743,
                    2.433788789424826,
                    4.400905730575174
                ],
                "label": "Mg",
                "properties": {}
            },
            {
                "species": [
                    {
                        "element": "Mg",
                        "occu": 1
                    }
                ],
                "abc": [
                    0.35609328,
                    0.64390672,
                    0.14390672
                ],
                "xyz": [
                    2.433788789424826,
                    4.400905730575174,
                    0.9835584705751743
                ],
                "label": "Mg",
                "properties": {}
            },
            {
                "species": [
                    {
                        "element": "Mg",
                        "occu": 1
                    }
                ],
                "abc": [
                    0.85609328,
                    0.85609328,
                    0.85609328
                ],
                "xyz": [
                    5.8511360494248255,
                    5.8511360494248255,
                    5.8511360494248255
                ],
                "label": "Mg",
                "properties": {}
            },
            {
                "species": [
                    {
                        "element": "B",
                        "occu": 1
                    }
                ],
                "abc": [
                    0.09446116,
                    0.59446116,
                    0.90553884
                ],
                "xyz": [
                    0.6456131726048432,
                    4.062960432604844,
                    6.189081347395157
                ],
                "label": "B",
                "properties": {}
            },
            {
                "species": [
                    {
                        "element": "B",
                        "occu": 1
                    }
                ],
                "abc": [
                    0.59446116,
                    0.90553884,
                    0.09446116
                ],
                "xyz": [
                    4.062960432604844,
                    6.189081347395157,
                    0.6456131726048432
                ],
                "label": "B",
                "properties": {}
            },
            {
                "species": [
                    {
                        "element": "B",
                        "occu": 1
                    }
                ],
                "abc": [
                    0.90553884,
                    0.09446116,
                    0.59446116
                ],
                "xyz": [
                    6.189081347395157,
                    0.6456131726048432,
                    4.062960432604844
                ],
                "label": "B",
                "properties": {}
            },
            {
                "species": [
                    {
                        "element": "B",
                        "occu": 1
                    }
                ],
                "abc": [
                    0.40553884,
                    0.40553884,
                    0.40553884
                ],
                "xyz": [
                    2.771734087395157,
                    2.771734087395157,
                    2.771734087395157
                ],
                "label": "B",
                "properties": {}
            },
            {
                "species": [
                    {
                        "element": "O",
                        "occu": 1
                    }
                ],
                "abc": [
                    0.96053121,
                    0.58448305,
                    0.75445362
                ],
                "xyz": [
                    6.564937397275969,
                    3.994763098867886,
                    5.1564600222081625
                ],
                "label": "O",
                "properties": {}
            },
            {
                "species": [
                    {
                        "element": "O",
                        "occu": 1
                    }
                ],
                "abc": [
                    0.24554638,
                    0.46053121,
                    0.91551695
                ],
                "xyz": [
                    1.6782344977918378,
                    3.1475901372759694,
                    6.257278681132115
                ],
                "label": "O",
                "properties": {}
            },
            {
                "species": [
                    {
                        "element": "O",
                        "occu": 1
                    }
                ],
                "abc": [
                    0.08448305,
                    0.74554638,
                    0.03946879
                ],
                "xyz": [
                    0.577415838867886,
                    5.095581757791837,
                    0.2697571227240308
                ],
                "label": "O",
                "properties": {}
            },
            {
                "species": [
                    {
                        "element": "O",
                        "occu": 1
                    }
                ],
                "abc": [
                    0.46053121,
                    0.91551695,
                    0.24554638
                ],
                "xyz": [
                    3.1475901372759694,
                    6.257278681132115,
                    1.6782344977918378
                ],
                "label": "O",
                "properties": {}
            },
            {
                "species": [
                    {
                        "element": "O",
                        "occu": 1
                    }
                ],
                "abc": [
                    0.74554638,
                    0.03946879,
                    0.08448305
                ],
                "xyz": [
                    5.095581757791837,
                    0.2697571227240308,
                    0.577415838867886
                ],
                "label": "O",
                "properties": {}
            },
            {
                "species": [
                    {
                        "element": "O",
                        "occu": 1
                    }
                ],
                "abc": [
                    0.58448305,
                    0.75445362,
                    0.96053121
                ],
                "xyz": [
                    3.994763098867886,
                    5.1564600222081625,
                    6.564937397275969
                ],
                "label": "O",
                "properties": {}
            },
            {
                "species": [
                    {
                        "element": "O",
                        "occu": 1
                    }
                ],
                "abc": [
                    0.03946879,
                    0.08448305,
                    0.74554638
                ],
                "xyz": [
                    0.2697571227240308,
                    0.577415838867886,
                    5.095581757791837
                ],
                "label": "O",
                "properties": {}
            },
            {
                "species": [
                    {
                        "element": "O",
                        "occu": 1
                    }
                ],
                "abc": [
                    0.75445362,
                    0.96053121,
                    0.58448305
                ],
                "xyz": [
                    5.1564600222081625,
                    6.564937397275969,
                    3.994763098867886
                ],
                "label": "O",
                "properties": {}
            },
            {
                "species": [
                    {
                        "element": "O",
                        "occu": 1
                    }
                ],
                "abc": [
                    0.91551695,
                    0.24554638,
                    0.46053121
                ],
                "xyz": [
                    6.257278681132115,
                    1.6782344977918378,
                    3.1475901372759694
                ],
                "label": "O",
                "properties": {}
            },
            {
                "species": [
                    {
                        "element": "O",
                        "occu": 1
                    }
                ],
                "abc": [
                    0.53946879,
                    0.41551695,
                    0.25445362
                ],
                "xyz": [
                    3.6871043827240313,
                    2.839931421132114,
                    1.7391127622081624
                ],
                "label": "O",
                "properties": {}
            },
            {
                "species": [
                    {
                        "element": "O",
                        "occu": 1
                    }
                ],
                "abc": [
                    0.25445362,
                    0.53946879,
                    0.41551695
                ],
                "xyz": [
                    1.7391127622081624,
                    3.6871043827240313,
                    2.839931421132114
                ],
                "label": "O",
                "properties": {}
            },
            {
                "species": [
                    {
                        "element": "O",
                        "occu": 1
                    }
                ],
                "abc": [
                    0.41551695,
                    0.25445362,
                    0.53946879
                ],
                "xyz": [
                    2.839931421132114,
                    1.7391127622081624,
                    3.6871043827240313
                ],
                "label": "O",
                "properties": {}
            }
        ]
    },
    "spacegroup": {
        "source": "spglib",
        "symbol": "P2_13",
        "number": 198,
        "point_group": "23",
        "crystal_system": "cubic",
        "hall": "P 2ac 2ab 3"
    },
    "dielectric": {
        "epsilon_ionic": [
            [
                3.79756234,
                -7e-08,
                -7e-08
            ],
            [
                -7e-08,
                3.79756232,
                -7e-08
            ],
            [
                -7e-08,
                -7e-08,
                3.7975639
            ]
        ],
        "epsilon_ionic_avg": 3.797562853333334,
        "epsilon_ionic_eig": [
            3.797562253366492,
            3.797562400679277,
            3.797563905954233
        ],
        "epsilon_electronic": [
            [
                2.47648592,
                0.0,
                0.0
            ],
            [
                -0.0,
                2.47648592,
                0.0
            ],
            [
                -0.0,
                0.0,
                2.47648592
            ]
        ],
        "epsilon_electronic_avg": 2.47648592,
        "epsilon_electronic_eig": [
            2.47648592,
            2.47648592,
            2.47648592
        ]
    },
    "phonon": {
        "lowest_freq": -0.1811854999986429,
        "frequency": [
            -0.1811854999986429,
            -0.1811854999986429,
            -0.1811854999986429,
            3.00095151273579,
            3.509606293141454,
            3.509606293141454,
            3.669096662800321,
            3.669096662800321,
            3.669096662800321,
            3.9342911094394486,
            3.9342911094394486,
            3.9342911094394486,
            4.175054352871477,
            4.175054352871477,
            4.367466673835464,
            4.367466673835464,
            4.367466673835464,
            4.380669891472542,
            5.47567997405186,
            5.47567997405186,
            5.47567997405186,
            6.167251130159393,
            6.167251130159393,
            6.167251130159393,
            6.80522364102864,
            6.8546787189542835,
            6.8546787189542835,
            6.8546787189542835,
            7.093243506675799,
            7.093243506675799,
            7.6007108205975795,
            7.6007108205975795,
            7.6007108205975795,
            8.239155156326628,
            8.239155156326628,
            8.239155156326628,
            8.912689366165626,
            8.912689366165626,
            8.912689366165626,
            10.605050029123408,
            11.102003377724218,
            11.102003377724218,
            11.112633092619355,
            11.112633092619355,
            11.112633092619355,
            12.143414515307382,
            12.143414515307382,
            12.143414515307382,
            17.851413865084332,
            17.851413865084332,
            18.24518780483988,
            18.24518780483988,
            18.24518780483988,
            18.882296349375963,
            18.882296349375963,
            18.882296349375963,
            21.108295203984373,
            21.328317341211072,
            21.328317341211072,
            21.328317341211072,
            27.004216553741202,
            27.004216553741202,
            27.004216553741202,
            27.060626022273148,
            38.63176142847968,
            38.63176142847968,
            38.83004277631188,
            38.83004277631188,
            38.83004277631188,
            39.29359119810629,
            39.29359119810629,
            39.29359119810629
        ]
    },
    "born_effective_charge": {
        "avg_abs_trace": 1.5498583333333336,
        "tensors": [
            [
                [
                    1.21568,
                    0.03349,
                    -0.09389
                ],
                [
                    0.09389,
                    1.21568,
                    -0.0335
                ],
                [
                    -0.03351,
                    -0.09384,
                    1.2157
                ]
            ],
            [
                [
                    1.21568,
                    -0.03349,
                    0.09389
                ],
                [
                    -0.09384,
                    1.2157,
                    -0.03351
                ],
                [
                    0.0335,
                    -0.0939,
                    1.21568
                ]
            ],
            [
                [
                    1.2157,
                    -0.03351,
                    -0.09384
                ],
                [
                    -0.09389,
                    1.21568,
                    0.0335
                ],
                [
                    -0.0335,
                    0.0939,
                    1.21568
                ]
            ],
            [
                [
                    1.2157,
                    0.03351,
                    0.09384
                ],
                [
                    0.09384,
                    1.2157,
                    0.03351
                ],
                [
                    0.03351,
                    0.09384,
                    1.2157
                ]
            ],
            [
                [
                    1.87473,
                    -0.23423,
                    0.19588
                ],
                [
                    -0.19588,
                    1.87473,
                    0.23423
                ],
                [
                    0.23423,
                    0.19588,
                    1.87474
                ]
            ],
            [
                [
                    1.87473,
                    0.23423,
                    -0.19588
                ],
                [
                    0.19588,
                    1.87474,
                    0.23423
                ],
                [
                    -0.23423,
                    0.19588,
                    1.87473
                ]
            ],
            [
                [
                    1.87474,
                    0.23423,
                    0.19588
                ],
                [
                    0.19588,
                    1.87473,
                    -0.23423
                ],
                [
                    0.23423,
                    -0.19588,
                    1.87473
                ]
            ],
            [
                [
                    1.87474,
                    -0.23423,
                    -0.19588
                ],
                [
                    -0.19588,
                    1.87474,
                    -0.23423
                ],
                [
                    -0.23423,
                    -0.19588,
                    1.87474
                ]
            ],
            [
                [
                    1.55914,
                    -0.6613,
                    0.65989
                ],
                [
                    -0.65989,
                    1.55914,
                    0.6613
                ],
                [
                    0.6612,
                    0.66,
                    1.55917
                ]
            ],
            [
                [
                    1.55914,
                    0.6613,
                    -0.65989
                ],
                [
                    0.66,
                    1.55917,
                    0.6612
                ],
                [
                    -0.6613,
                    0.65989,
                    1.55914
                ]
            ],
            [
                [
                    1.55917,
                    0.6612,
                    0.66
                ],
                [
                    0.65989,
                    1.55914,
                    -0.6613
                ],
                [
                    0.6613,
                    -0.65989,
                    1.55914
                ]
            ],
            [
                [
                    1.55917,
                    -0.6612,
                    -0.66
                ],
                [
                    -0.66,
                    1.55917,
                    -0.6612
                ],
                [
                    -0.6612,
                    -0.66,
                    1.55917
                ]
            ],
            [
                [
                    -1.58063,
                    0.13149,
                    -0.44729
                ],
                [
                    0.19235,
                    -1.40865,
                    -0.24403
                ],
                [
                    -0.41222,
                    -0.21316,
                    -1.6603
                ]
            ],
            [
                [
                    -1.66031,
                    0.41213,
                    -0.21335
                ],
                [
                    0.44729,
                    -1.58063,
                    -0.13149
                ],
                [
                    -0.24444,
                    -0.19201,
                    -1.40869
                ]
            ],
            [
                [
                    -1.40865,
                    0.24403,
                    -0.19235
                ],
                [
                    0.21335,
                    -1.66032,
                    -0.41213
                ],
                [
                    -0.13171,
                    -0.44704,
                    -1.58056
                ]
            ],
            [
                [
                    -1.58063,
                    -0.13149,
                    0.44729
                ],
                [
                    -0.19201,
                    -1.40869,
                    -0.24444
                ],
                [
                    0.41213,
                    -0.21335,
                    -1.66031
                ]
            ],
            [
                [
                    -1.66031,
                    -0.41213,
                    0.21335
                ],
                [
                    -0.44704,
                    -1.58056,
                    -0.13171
                ],
                [
                    0.24403,
                    -0.19235,
                    -1.40865
                ]
            ],
            [
                [
                    -1.40865,
                    -0.24403,
                    0.19235
                ],
                [
                    -0.21316,
                    -1.66029,
                    -0.41222
                ],
                [
                    0.13149,
                    -0.44729,
                    -1.58063
                ]
            ],
            [
                [
                    -1.58056,
                    -0.13171,
                    -0.44704
                ],
                [
                    -0.19235,
                    -1.40865,
                    0.24403
                ],
                [
                    -0.41213,
                    0.21335,
                    -1.66031
                ]
            ],
            [
                [
                    -1.6603,
                    -0.41222,
                    -0.21316
                ],
                [
                    -0.44729,
                    -1.58063,
                    0.13149
                ],
                [
                    -0.24403,
                    0.19235,
                    -1.40865
                ]
            ],
            [
                [
                    -1.40869,
                    -0.24444,
                    -0.19201
                ],
                [
                    -0.21335,
                    -1.66032,
                    0.41213
                ],
                [
                    -0.13149,
                    0.44729,
                    -1.58063
                ]
            ],
            [
                [
                    -1.58056,
                    0.13171,
                    0.44704
                ],
                [
                    0.19201,
                    -1.40869,
                    0.24444
                ],
                [
                    0.41222,
                    0.21316,
                    -1.6603
                ]
            ],
            [
                [
                    -1.6603,
                    0.41222,
                    0.21316
                ],
                [
                    0.44704,
                    -1.58056,
                    0.13171
                ],
                [
                    0.24444,
                    0.19201,
                    -1.40869
                ]
            ],
            [
                [
                    -1.40869,
                    0.24444,
                    0.19201
                ],
                [
                    0.21316,
                    -1.66029,
                    0.41222
                ],
                [
                    0.13171,
                    0.44704,
                    -1.58056
                ]
            ]
        ]
    },
    "band_gap": 4.4381,
    "is_direct": false,
    "formula": "KMgBO3"
}