{
    "mp_id": "mp-19957",
    "nelements": 4,
    "nsites": 24,
    "elements": [
        "B",
        "Ge",
        "La",
        "O"
    ],
    "structure": {
        "@module": "pymatgen.core.structure",
        "@class": "Structure",
        "charge": null,
        "lattice": {
            "matrix": [
                [
                    7.01589441,
                    1.1e-07,
                    0.0
                ],
                [
                    -3.5079468,
                    6.07594307,
                    0.0
                ],
                [
                    0.0,
                    0.0,
                    6.85259738
                ]
            ],
            "a": 7.0158944100000005,
            "b": 7.0158944505680285,
            "c": 6.85259738,
            "alpha": 90.0,
            "beta": 90.0,
            "gamma": 119.99999509127464,
            "volume": 292.11372310246935
        },
        "sites": [
            {
                "species": [
                    {
                        "element": "La",
                        "occu": 1
                    }
                ],
                "abc": [
                    0.41469783,
                    0.41138734,
                    0.66986182
                ],
                "xyz": [
                    1.4663512844226179,
                    2.4995661031754954,
                    4.590293352694032
                ],
                "label": "La",
                "properties": {}
            },
            {
                "species": [
                    {
                        "element": "La",
                        "occu": 1
                    }
                ],
                "abc": [
                    0.99669051,
                    0.58530217,
                    0.33652882
                ],
                "xyz": [
                    4.939466503324493,
                    3.556262773303418,
                    2.3060965102264914
                ],
                "label": "La",
                "properties": {}
            },
            {
                "species": [
                    {
                        "element": "La",
                        "occu": 1
                    }
                ],
                "abc": [
                    0.58861266,
                    0.00330949,
                    0.00319482
                ],
                "xyz": [
                    4.118034756094098,
                    0.0201083375781269,
                    0.0218928151615716
                ],
                "label": "La",
                "properties": {}
            },
            {
                "species": [
                    {
                        "element": "Ge",
                        "occu": 1
                    }
                ],
                "abc": [
                    0.41485484,
                    0.42426887,
                    0.17009023
                ],
                "xyz": [
                    1.4222651280613283,
                    2.5778335461272635,
                    1.1655598644615974
                ],
                "label": "Ge",
                "properties": {}
            },
            {
                "species": [
                    {
                        "element": "Ge",
                        "occu": 1
                    }
                ],
                "abc": [
                    0.00941404,
                    0.58514516,
                    0.83675623
                ],
                "xyz": [
                    -1.986610180945972,
                    3.555308680881586,
                    5.733953549396677
                ],
                "label": "Ge",
                "properties": {}
            },
            {
                "species": [
                    {
                        "element": "Ge",
                        "occu": 1
                    }
                ],
                "abc": [
                    0.57573113,
                    0.99058596,
                    0.50342323
                ],
                "xyz": [
                    0.5643459681230549,
                    6.018743962231722,
                    3.4497567069291373
                ],
                "label": "Ge",
                "properties": {}
            },
            {
                "species": [
                    {
                        "element": "B",
                        "occu": 1
                    }
                ],
                "abc": [
                    0.89978668,
                    0.88288925,
                    0.63893327
                ],
                "xyz": [
                    3.215679819112558,
                    5.364384919091532,
                    4.378352451996832
                ],
                "label": "B",
                "properties": {}
            },
            {
                "species": [
                    {
                        "element": "B",
                        "occu": 1
                    }
                ],
                "abc": [
                    0.98310257,
                    0.10021332,
                    0.30560027
                ],
                "xyz": [
                    6.5458008301082575,
                    0.6088905353169751,
                    2.0941556095292926
                ],
                "label": "B",
                "properties": {}
            },
            {
                "species": [
                    {
                        "element": "B",
                        "occu": 1
                    }
                ],
                "abc": [
                    0.11711075,
                    0.01689743,
                    0.97226727
                ],
                "xyz": [
                    0.7623613707791834,
                    0.10266783559149262,
                    6.6625561470617525
                ],
                "label": "B",
                "properties": {}
            },
            {
                "species": [
                    {
                        "element": "O",
                        "occu": 1
                    }
                ],
                "abc": [
                    0.16396094,
                    0.54978585,
                    0.65351658
                ],
                "xyz": [
                    -0.7782868707884347,
                    3.3404675433272635,
                    4.47828600389456
                ],
                "label": "O",
                "properties": {}
            },
            {
                "species": [
                    {
                        "element": "O",
                        "occu": 1
                    }
                ],
                "abc": [
                    0.38582492,
                    0.83603906,
                    0.32018258
                ],
                "xyz": [
                    -0.22587364573531055,
                    5.079725775297056,
                    2.1940823088296404
                ],
                "label": "O",
                "properties": {}
            },
            {
                "species": [
                    {
                        "element": "O",
                        "occu": 1
                    }
                ],
                "abc": [
                    0.45021415,
                    0.61417508,
                    0.98684958
                ],
                "xyz": [
                    1.004161431762157,
                    3.7316928706162518,
                    6.7624828463621
                ],
                "label": "O",
                "properties": {}
            },
            {
                "species": [
                    {
                        "element": "O",
                        "occu": 1
                    }
                ],
                "abc": [
                    0.06396369,
                    0.04262684,
                    0.77160626
                ],
                "xyz": [
                    0.29922980814186095,
                    0.2589982601300047,
                    5.287507035667598
                ],
                "label": "O",
                "properties": {}
            },
            {
                "species": [
                    {
                        "element": "O",
                        "occu": 1
                    }
                ],
                "abc": [
                    0.95737316,
                    0.02133686,
                    0.10493926
                ],
                "xyz": [
                    6.641980431768987,
                    0.1296416519636078,
                    0.7191064981351388
                ],
                "label": "O",
                "properties": {}
            },
            {
                "species": [
                    {
                        "element": "O",
                        "occu": 1
                    }
                ],
                "abc": [
                    0.97866314,
                    0.93603631,
                    0.43827226
                ],
                "xyz": [
                    3.5826316748507394,
                    5.687303438665817,
                    3.003303340602679
                ],
                "label": "O",
                "properties": {}
            },
            {
                "species": [
                    {
                        "element": "O",
                        "occu": 1
                    }
                ],
                "abc": [
                    0.35094067,
                    0.19557307,
                    0.0094908
                ],
                "xyz": [
                    1.7761027598219785,
                    1.1882908779485986,
                    0.065036631214104
                ],
                "label": "O",
                "properties": {}
            },
            {
                "species": [
                    {
                        "element": "O",
                        "occu": 1
                    }
                ],
                "abc": [
                    0.80442693,
                    0.1553676,
                    0.3428248
                ],
                "xyz": [
                    5.098753126196781,
                    0.9440047810094943,
                    2.349240326279024
                ],
                "label": "O",
                "properties": {}
            },
            {
                "species": [
                    {
                        "element": "O",
                        "occu": 1
                    }
                ],
                "abc": [
                    0.8446324,
                    0.64905933,
                    0.6761578
                ],
                "xyz": [
                    3.6489861339812393,
                    3.9436476310419075,
                    4.633437168746564
                ],
                "label": "O",
                "properties": {}
            },
            {
                "species": [
                    {
                        "element": "O",
                        "occu": 1
                    }
                ],
                "abc": [
                    0.1822939,
                    0.32510305,
                    0.33328862
                ],
                "xyz": [
                    0.13851055006935886,
                    1.9753076437356925,
                    2.2838927241958156
                ],
                "label": "O",
                "properties": {}
            },
            {
                "species": [
                    {
                        "element": "O",
                        "occu": 1
                    }
                ],
                "abc": [
                    0.67489695,
                    0.85719086,
                    0.66662162
                ],
                "xyz": [
                    1.7280258045048016,
                    5.208242939723005,
                    4.568089566663356
                ],
                "label": "O",
                "properties": {}
            },
            {
                "species": [
                    {
                        "element": "O",
                        "occu": 1
                    }
                ],
                "abc": [
                    0.14280914,
                    0.8177061,
                    0.99995562
                ],
                "xyz": [
                    -1.8665356498125727,
                    4.968335727300732,
                    6.852293261728276
                ],
                "label": "O",
                "properties": {}
            },
            {
                "species": [
                    {
                        "element": "O",
                        "occu": 1
                    }
                ],
                "abc": [
                    0.61398616,
                    0.47385262,
                    0.34738143
                ],
                "xyz": [
                    2.6454122857607487,
                    2.879101610228821,
                    2.3804650770786533
                ],
                "label": "O",
                "properties": {}
            },
            {
                "species": [
                    {
                        "element": "O",
                        "occu": 1
                    }
                ],
                "abc": [
                    0.52614738,
                    0.14013354,
                    0.68071443
                ],
                "xyz": [
                    3.199813458962474,
                    0.8514434691137797,
                    4.664661919546193
                ],
                "label": "O",
                "properties": {}
            },
            {
                "species": [
                    {
                        "element": "O",
                        "occu": 1
                    }
                ],
                "abc": [
                    0.85986646,
                    0.38601384,
                    0.01404743
                ],
                "xyz": [
                    4.6786162752767755,
                    2.3453982106573994,
                    0.0962613820137334
                ],
                "label": "O",
                "properties": {}
            }
        ]
    },
    "spacegroup": {
        "source": "spglib",
        "symbol": "P3_1",
        "number": 144,
        "point_group": "3",
        "crystal_system": "trigonal",
        "hall": "P 31"
    },
    "dielectric": {
        "epsilon_ionic": [
            [
                8.05192032,
                -0.00023287,
                -9.231e-05
            ],
            [
                -0.00023287,
                8.0545708,
                -4.01e-05
            ],
            [
                -9.231e-05,
                -4.01e-05,
                8.23891645
            ]
        ],
        "epsilon_ionic_avg": 8.115135856666667,
        "epsilon_ionic_eig": [
            8.051899966978102,
            8.054591098780522,
            8.238916504241372
        ],
        "epsilon_electronic": [
            [
                3.69490413,
                -1.71e-06,
                0.0
            ],
            [
                1.71e-06,
                3.69490482,
                0.0
            ],
            [
                0.0,
                0.0,
                3.85274773
            ]
        ],
        "epsilon_electronic_avg": 3.7475188933333334,
        "epsilon_electronic_eig": [
            3.6949044750000004,
            3.6949044750000004,
            3.85274773
        ]
    },
    "phonon": {
        "lowest_freq": -0.03857571720157851,
        "frequency": [
            -0.03857571720157851,
            -0.029817511861155287,
            -0.029817509074334947,
            2.370042778223387,
            2.623729431721924,
            2.6237294410369136,
            2.752382039210881,
            3.197407041218805,
            3.1974070641498984,
            3.411314411954869,
            3.5416235453727065,
            3.541623586777468,
            4.441436049136305,
            4.666931185631868,
            4.666931416053211,
            5.043317932888279,
            5.2417534929520055,
            5.287320254048185,
            5.287320392719638,
            5.796453389460276,
            5.796453473787748,
            6.111724440370065,
            6.723824087989419,
            6.723824142511993,
            7.215761189154607,
            7.215761324635881,
            7.559828097798057,
            8.283613734417758,
            8.283613837681923,
            8.65831727417648,
            8.753337276008857,
            9.28516020614828,
            9.529056247591585,
            9.529056363007065,
            10.376008535987879,
            11.004564468123723,
            11.004564668004523,
            11.041056930081501,
            11.994896877122647,
            11.994897131814426,
            13.07545149680351,
            13.075451749139098,
            14.362307094055,
            14.362307298256283,
            14.5700349425585,
            15.852636988867328,
            18.010407973963524,
            18.010408313211983,
            18.211043199018295,
            20.302465886444292,
            20.302466367962406,
            21.068247614794007,
            21.068248136812066,
            21.496018438149665,
            22.649706681819897,
            22.64970673577206,
            23.20008031774956,
            23.483467069835175,
            24.035716043828938,
            24.035716145511007,
            24.828534816291658,
            25.363445364088676,
            25.367044654813434,
            25.36704537740488,
            26.96447083648944,
            26.964471380316457,
            28.509455281492848,
            28.926852183447586,
            28.92685366200535,
            29.679416563132598,
            32.53795357112952,
            32.53795360868568
        ]
    },
    "born_effective_charge": {
        "avg_abs_trace": 2.5214658333333335,
        "tensors": [
            [
                [
                    4.4347,
                    -0.44787,
                    -0.16099
                ],
                [
                    -0.41643,
                    4.11966,
                    -0.09506
                ],
                [
                    -0.41316,
                    0.04311,
                    4.08853
                ]
            ],
            [
                [
                    4.57189,
                    0.33692,
                    -0.00192
                ],
                [
                    0.36905,
                    3.98268,
                    0.18706
                ],
                [
                    0.24392,
                    0.33626,
                    4.08853
                ]
            ],
            [
                [
                    3.82369,
                    0.06346,
                    0.16266
                ],
                [
                    0.0949,
                    4.73151,
                    -0.09215
                ],
                [
                    0.16925,
                    -0.37937,
                    4.08853
                ]
            ],
            [
                [
                    3.0835,
                    0.09833,
                    0.16245
                ],
                [
                    0.04058,
                    3.25185,
                    -0.04723
                ],
                [
                    0.14353,
                    0.04362,
                    3.69036
                ]
            ],
            [
                [
                    3.14981,
                    -0.07898,
                    -0.12206
                ],
                [
                    -0.13667,
                    3.18544,
                    -0.117
                ],
                [
                    -0.03399,
                    -0.14611,
                    3.69036
                ]
            ],
            [
                [
                    3.27015,
                    0.06715,
                    -0.0403
                ],
                [
                    0.00933,
                    3.06515,
                    0.1643
                ],
                [
                    -0.10954,
                    0.10249,
                    3.69036
                ]
            ],
            [
                [
                    2.73285,
                    0.02483,
                    0.10925
                ],
                [
                    0.05406,
                    2.44018,
                    0.1241
                ],
                [
                    0.23896,
                    0.01884,
                    2.4155
                ]
            ],
            [
                [
                    2.47953,
                    0.09199,
                    0.05258
                ],
                [
                    0.12125,
                    2.6938,
                    -0.15678
                ],
                [
                    -0.10316,
                    -0.21637,
                    2.4155
                ]
            ],
            [
                [
                    2.54799,
                    -0.16095,
                    -0.16178
                ],
                [
                    -0.13177,
                    2.62523,
                    0.03281
                ],
                [
                    -0.1358,
                    0.19753,
                    2.4155
                ]
            ],
            [
                [
                    -2.74777,
                    0.42397,
                    0.16674
                ],
                [
                    0.42023,
                    -1.31989,
                    0.002
                ],
                [
                    0.06734,
                    0.01506,
                    -2.22198
                ]
            ],
            [
                [
                    -2.04223,
                    -0.82766,
                    -0.08152
                ],
                [
                    -0.83085,
                    -2.02527,
                    -0.14552
                ],
                [
                    -0.02063,
                    -0.06585,
                    -2.22198
                ]
            ],
            [
                [
                    -1.31103,
                    0.40915,
                    -0.08495
                ],
                [
                    0.40563,
                    -2.75592,
                    0.14358
                ],
                [
                    -0.04671,
                    0.05079,
                    -2.22198
                ]
            ],
            [
                [
                    -1.50976,
                    -0.45296,
                    -0.495
                ],
                [
                    -0.40285,
                    -1.90879,
                    -0.27445
                ],
                [
                    -0.54016,
                    -0.29478,
                    -2.28014
                ]
            ],
            [
                [
                    -2.17976,
                    0.01614,
                    0.48491
                ],
                [
                    0.06624,
                    -1.23937,
                    -0.29155
                ],
                [
                    0.52537,
                    -0.3204,
                    -2.28014
                ]
            ],
            [
                [
                    -1.43847,
                    0.36175,
                    0.01003
                ],
                [
                    0.41154,
                    -1.98019,
                    0.56589
                ],
                [
                    0.01479,
                    0.61518,
                    -2.28014
                ]
            ],
            [
                [
                    -1.86316,
                    -0.04348,
                    0.07148
                ],
                [
                    -0.17571,
                    -2.43048,
                    -0.38345
                ],
                [
                    -0.07299,
                    -0.41986,
                    -1.75462
                ]
            ],
            [
                [
                    -2.38341,
                    -0.12485,
                    0.29625
                ],
                [
                    -0.25671,
                    -1.91026,
                    0.25377
                ],
                [
                    0.40011,
                    0.14672,
                    -1.75462
                ]
            ],
            [
                [
                    -2.19368,
                    0.36631,
                    -0.36772
                ],
                [
                    0.23436,
                    -2.10003,
                    0.12969
                ],
                [
                    -0.32712,
                    0.27315,
                    -1.75462
                ]
            ],
            [
                [
                    -2.10268,
                    -0.58404,
                    0.1632
                ],
                [
                    -0.45693,
                    -2.15131,
                    -0.0646
                ],
                [
                    0.18567,
                    0.06481,
                    -1.72376
                ]
            ],
            [
                [
                    -2.5897,
                    0.17586,
                    -0.0256
                ],
                [
                    0.30321,
                    -1.66411,
                    0.17377
                ],
                [
                    -0.14896,
                    0.12839,
                    -1.72376
                ]
            ],
            [
                [
                    -1.68816,
                    0.21759,
                    -0.13761
                ],
                [
                    0.34489,
                    -2.56598,
                    -0.10928
                ],
                [
                    -0.03671,
                    -0.1932,
                    -1.72376
                ]
            ],
            [
                [
                    -2.75296,
                    -0.3888,
                    -0.19548
                ],
                [
                    -0.43327,
                    -1.2767,
                    -0.01398
                ],
                [
                    -0.14793,
                    0.0121,
                    -2.21389
                ]
            ],
            [
                [
                    -2.00183,
                    0.86736,
                    0.1097
                ],
                [
                    0.82209,
                    -2.02761,
                    -0.16259
                ],
                [
                    0.06349,
                    -0.13416,
                    -2.21389
                ]
            ],
            [
                [
                    -1.2895,
                    -0.41121,
                    0.08569
                ],
                [
                    -0.45617,
                    -2.73958,
                    0.17667
                ],
                [
                    0.08444,
                    0.12206,
                    -2.21389
                ]
            ]
        ]
    },
    "band_gap": 3.9098999999999995,
    "is_direct": false,
    "formula": "LaGeBO5"
}