{
    "mp_id": "mp-13820",
    "nelements": 3,
    "nsites": 18,
    "elements": [
        "Cd",
        "O",
        "Si"
    ],
    "structure": {
        "@module": "pymatgen.core.structure",
        "@class": "Structure",
        "charge": null,
        "lattice": {
            "matrix": [
                [
                    6.81629451,
                    0.0,
                    0.0
                ],
                [
                    0.0,
                    6.81629451,
                    0.0
                ],
                [
                    0.0,
                    0.0,
                    5.02006683
                ]
            ],
            "a": 6.81629451,
            "b": 6.81629451,
            "c": 5.02006683,
            "alpha": 90.0,
            "beta": 90.0,
            "gamma": 90.0,
            "volume": 233.2416966990505
        },
        "sites": [
            {
                "species": [
                    {
                        "element": "Cd",
                        "occu": 1
                    }
                ],
                "abc": [
                    0.0,
                    0.5,
                    0.9688749
                ],
                "xyz": [
                    0.0,
                    3.408147255,
                    4.863816747909567
                ],
                "label": "Cd",
                "properties": {}
            },
            {
                "species": [
                    {
                        "element": "Cd",
                        "occu": 1
                    }
                ],
                "abc": [
                    0.5,
                    0.0,
                    0.0311251
                ],
                "xyz": [
                    3.408147255,
                    0.0,
                    0.156250082090433
                ],
                "label": "Cd",
                "properties": {}
            },
            {
                "species": [
                    {
                        "element": "Cd",
                        "occu": 1
                    }
                ],
                "abc": [
                    0.25,
                    0.25,
                    0.5
                ],
                "xyz": [
                    1.7040736275,
                    1.7040736275,
                    2.510033415
                ],
                "label": "Cd",
                "properties": {}
            },
            {
                "species": [
                    {
                        "element": "Cd",
                        "occu": 1
                    }
                ],
                "abc": [
                    0.25,
                    0.75,
                    0.5
                ],
                "xyz": [
                    1.7040736275,
                    5.1122208825,
                    2.510033415
                ],
                "label": "Cd",
                "properties": {}
            },
            {
                "species": [
                    {
                        "element": "Cd",
                        "occu": 1
                    }
                ],
                "abc": [
                    0.75,
                    0.25,
                    0.5
                ],
                "xyz": [
                    5.1122208825,
                    1.7040736275,
                    2.510033415
                ],
                "label": "Cd",
                "properties": {}
            },
            {
                "species": [
                    {
                        "element": "Cd",
                        "occu": 1
                    }
                ],
                "abc": [
                    0.75,
                    0.75,
                    0.5
                ],
                "xyz": [
                    5.1122208825,
                    5.1122208825,
                    2.510033415
                ],
                "label": "Cd",
                "properties": {}
            },
            {
                "species": [
                    {
                        "element": "Si",
                        "occu": 1
                    }
                ],
                "abc": [
                    0.0,
                    0.0,
                    0.0
                ],
                "xyz": [
                    0.0,
                    0.0,
                    0.0
                ],
                "label": "Si",
                "properties": {}
            },
            {
                "species": [
                    {
                        "element": "Si",
                        "occu": 1
                    }
                ],
                "abc": [
                    0.5,
                    0.5,
                    0.0
                ],
                "xyz": [
                    3.408147255,
                    3.408147255,
                    0.0
                ],
                "label": "Si",
                "properties": {}
            },
            {
                "species": [
                    {
                        "element": "O",
                        "occu": 1
                    }
                ],
                "abc": [
                    0.0,
                    0.5,
                    0.39516521
                ],
                "xyz": [
                    0.0,
                    3.408147255,
                    1.9837557630909843
                ],
                "label": "O",
                "properties": {}
            },
            {
                "species": [
                    {
                        "element": "O",
                        "occu": 1
                    }
                ],
                "abc": [
                    0.5,
                    0.0,
                    0.60483479
                ],
                "xyz": [
                    3.408147255,
                    0.0,
                    3.0363110669090156
                ],
                "label": "O",
                "properties": {}
            },
            {
                "species": [
                    {
                        "element": "O",
                        "occu": 1
                    }
                ],
                "abc": [
                    0.30932479,
                    0.5,
                    0.7997829
                ],
                "xyz": [
                    2.108448867883903,
                    3.408147255,
                    4.014963607491207
                ],
                "label": "O",
                "properties": {}
            },
            {
                "species": [
                    {
                        "element": "O",
                        "occu": 1
                    }
                ],
                "abc": [
                    0.69067521,
                    0.5,
                    0.7997829
                ],
                "xyz": [
                    4.707845642116097,
                    3.408147255,
                    4.014963607491207
                ],
                "label": "O",
                "properties": {}
            },
            {
                "species": [
                    {
                        "element": "O",
                        "occu": 1
                    }
                ],
                "abc": [
                    0.0,
                    0.19067521,
                    0.7997829
                ],
                "xyz": [
                    0.0,
                    1.2996983871160972,
                    4.014963607491207
                ],
                "label": "O",
                "properties": {}
            },
            {
                "species": [
                    {
                        "element": "O",
                        "occu": 1
                    }
                ],
                "abc": [
                    0.0,
                    0.80932479,
                    0.7997829
                ],
                "xyz": [
                    0.0,
                    5.516596122883903,
                    4.014963607491207
                ],
                "label": "O",
                "properties": {}
            },
            {
                "species": [
                    {
                        "element": "O",
                        "occu": 1
                    }
                ],
                "abc": [
                    0.5,
                    0.30932479,
                    0.2002171
                ],
                "xyz": [
                    3.408147255,
                    2.108448867883903,
                    1.005103222508793
                ],
                "label": "O",
                "properties": {}
            },
            {
                "species": [
                    {
                        "element": "O",
                        "occu": 1
                    }
                ],
                "abc": [
                    0.19067521,
                    0.0,
                    0.2002171
                ],
                "xyz": [
                    1.2996983871160972,
                    0.0,
                    1.005103222508793
                ],
                "label": "O",
                "properties": {}
            },
            {
                "species": [
                    {
                        "element": "O",
                        "occu": 1
                    }
                ],
                "abc": [
                    0.5,
                    0.69067521,
                    0.2002171
                ],
                "xyz": [
                    3.408147255,
                    4.707845642116097,
                    1.005103222508793
                ],
                "label": "O",
                "properties": {}
            },
            {
                "species": [
                    {
                        "element": "O",
                        "occu": 1
                    }
                ],
                "abc": [
                    0.80932479,
                    0.0,
                    0.2002171
                ],
                "xyz": [
                    5.516596122883903,
                    0.0,
                    1.005103222508793
                ],
                "label": "O",
                "properties": {}
            }
        ]
    },
    "spacegroup": {
        "source": "spglib",
        "symbol": "P4/nmm",
        "number": 129,
        "point_group": "4/mmm",
        "crystal_system": "tetragonal",
        "hall": "P 4ab 2ab -1ab"
    },
    "dielectric": {
        "epsilon_ionic": [
            [
                14.88129657,
                -7e-08,
                -1e-08
            ],
            [
                -7e-08,
                14.88123078,
                -1e-08
            ],
            [
                -1e-08,
                -1e-08,
                5.41876952
            ]
        ],
        "epsilon_ionic_avg": 11.727098956666667,
        "epsilon_ionic_eig": [
            14.88129657007448,
            14.881230779925525,
            5.41876952
        ],
        "epsilon_electronic": [
            [
                4.5516394,
                0.0,
                0.0
            ],
            [
                0.0,
                4.5516394,
                0.0
            ],
            [
                0.0,
                0.0,
                4.46942776
            ]
        ],
        "epsilon_electronic_avg": 4.52423552,
        "epsilon_electronic_eig": [
            4.5516394,
            4.5516394,
            4.46942776
        ]
    },
    "phonon": {
        "lowest_freq": -0.04009613141255685,
        "frequency": [
            -0.04009613141255685,
            -0.04009613141255685,
            -0.02263274662022924,
            1.3937714691085417,
            1.9707102577426119,
            1.9707102577426119,
            2.4136436817406293,
            2.721433443153468,
            2.721433443153468,
            2.752588006822009,
            2.752588006822009,
            3.205538855380526,
            3.7210714708748807,
            4.1942127696735865,
            4.329818248244033,
            4.329818248244033,
            4.478031047829993,
            4.478031047829993,
            4.53722391783425,
            4.547588069867216,
            4.916791279117395,
            5.423429639554705,
            6.227075566104535,
            6.227075566104535,
            7.660989528503747,
            7.660989528503747,
            7.805930662703905,
            8.737522989819535,
            8.737522989819535,
            9.259008153417616,
            9.30275898547022,
            9.30275898547022,
            9.446587518837676,
            9.446587518837676,
            10.50827354007617,
            12.47565589271325,
            12.606041060045175,
            12.978109771053138,
            13.79968566238134,
            13.919796569479171,
            13.919796569479171,
            14.201191298481138,
            14.261208993905315,
            14.261208993905315,
            14.596523392534934,
            15.167046159092264,
            24.61154810252782,
            24.993748845223486,
            26.132585724869596,
            26.132585724869596,
            26.134412121090286,
            26.134412121090286,
            26.204893123587937,
            27.836771766091456
        ]
    },
    "born_effective_charge": {
        "avg_abs_trace": 2.2959200000000006,
        "tensors": [
            [
                [
                    2.17177,
                    0.0,
                    -9e-05
                ],
                [
                    -0.0,
                    2.17177,
                    -9e-05
                ],
                [
                    0.0,
                    -0.0,
                    2.50999
                ]
            ],
            [
                [
                    2.17177,
                    0.0,
                    9e-05
                ],
                [
                    -0.0,
                    2.17177,
                    9e-05
                ],
                [
                    0.0,
                    -0.0,
                    2.50937
                ]
            ],
            [
                [
                    2.54063,
                    -0.29724,
                    -0.11604
                ],
                [
                    -0.29724,
                    2.54063,
                    0.11603
                ],
                [
                    -0.06318,
                    0.06318,
                    2.2699
                ]
            ],
            [
                [
                    2.54063,
                    0.29724,
                    -0.11604
                ],
                [
                    0.29724,
                    2.54063,
                    -0.11603
                ],
                [
                    -0.06318,
                    -0.06318,
                    2.2699
                ]
            ],
            [
                [
                    2.54063,
                    0.29724,
                    0.11604
                ],
                [
                    0.29724,
                    2.54063,
                    0.11603
                ],
                [
                    0.06318,
                    0.06318,
                    2.2699
                ]
            ],
            [
                [
                    2.54063,
                    -0.29724,
                    0.11604
                ],
                [
                    -0.29724,
                    2.54063,
                    -0.11603
                ],
                [
                    0.06318,
                    -0.06318,
                    2.2699
                ]
            ],
            [
                [
                    3.01572,
                    0.0,
                    -0.00033
                ],
                [
                    -0.0,
                    3.01572,
                    0.00033
                ],
                [
                    0.0,
                    -0.0,
                    3.40794
                ]
            ],
            [
                [
                    3.01572,
                    0.0,
                    0.00033
                ],
                [
                    -0.0,
                    3.01572,
                    -0.00033
                ],
                [
                    0.0,
                    -0.0,
                    3.40794
                ]
            ],
            [
                [
                    -2.16216,
                    0.0,
                    -4e-05
                ],
                [
                    -0.0,
                    -2.16214,
                    -4e-05
                ],
                [
                    0.0,
                    -0.0,
                    -1.99515
                ]
            ],
            [
                [
                    -2.16216,
                    0.0,
                    4e-05
                ],
                [
                    -0.0,
                    -2.16214,
                    4e-05
                ],
                [
                    0.0,
                    -0.0,
                    -1.99461
                ]
            ],
            [
                [
                    -2.36062,
                    0.0,
                    -0.55268
                ],
                [
                    7e-05,
                    -1.69271,
                    -0.00015
                ],
                [
                    -0.53218,
                    -0.0,
                    -2.11561
                ]
            ],
            [
                [
                    -2.36056,
                    0.0,
                    0.55278
                ],
                [
                    -7e-05,
                    -1.69271,
                    -0.00015
                ],
                [
                    0.53218,
                    -0.0,
                    -2.11561
                ]
            ],
            [
                [
                    -1.69271,
                    -8e-05,
                    -0.00015
                ],
                [
                    -0.0,
                    -2.36057,
                    0.55278
                ],
                [
                    0.0,
                    0.53218,
                    -2.11561
                ]
            ],
            [
                [
                    -1.69271,
                    8e-05,
                    -0.00015
                ],
                [
                    -0.0,
                    -2.36061,
                    -0.55267
                ],
                [
                    0.0,
                    -0.53218,
                    -2.11561
                ]
            ],
            [
                [
                    -1.69271,
                    8e-05,
                    0.00015
                ],
                [
                    -0.0,
                    -2.36061,
                    0.55267
                ],
                [
                    0.0,
                    0.53207,
                    -2.11566
                ]
            ],
            [
                [
                    -2.36056,
                    0.0,
                    -0.55278
                ],
                [
                    -7e-05,
                    -1.69271,
                    0.00015
                ],
                [
                    -0.53207,
                    -0.0,
                    -2.11566
                ]
            ],
            [
                [
                    -1.69271,
                    -8e-05,
                    0.00015
                ],
                [
                    -0.0,
                    -2.36057,
                    -0.55278
                ],
                [
                    0.0,
                    -0.53207,
                    -2.11566
                ]
            ],
            [
                [
                    -2.36062,
                    0.0,
                    0.55268
                ],
                [
                    7e-05,
                    -1.69271,
                    0.00015
                ],
                [
                    0.53207,
                    -0.0,
                    -2.11566
                ]
            ]
        ]
    },
    "band_gap": 0.9597999999999998,
    "is_direct": true,
    "formula": "Cd3SiO5"
}