{
    "mp_id": "mp-18247",
    "nelements": 4,
    "nsites": 22,
    "elements": [
        "O",
        "Rh",
        "Sc",
        "Sr"
    ],
    "structure": {
        "@module": "pymatgen.core.structure",
        "@class": "Structure",
        "charge": null,
        "lattice": {
            "matrix": [
                [
                    4.81001371,
                    2.77706287,
                    3.64781761
                ],
                [
                    -4.81001371,
                    2.77706287,
                    3.64781761
                ],
                [
                    0.0,
                    -5.55412575,
                    3.64781761
                ]
            ],
            "a": 6.6449140995310625,
            "b": 6.6449140995310625,
            "c": 6.644914308148689,
            "alpha": 92.74884943919717,
            "beta": 92.74884943919717,
            "gamma": 92.74884603203874,
            "volume": 292.35894942157717
        },
        "sites": [
            {
                "species": [
                    {
                        "element": "Sr",
                        "occu": 1
                    }
                ],
                "abc": [
                    0.11935581,
                    0.75,
                    0.38064419
                ],
                "xyz": [
                    -3.033407200031845,
                    0.3001100435028823,
                    4.5597720125
                ],
                "label": "Sr",
                "properties": {}
            },
            {
                "species": [
                    {
                        "element": "Sr",
                        "occu": 1
                    }
                ],
                "abc": [
                    0.75,
                    0.38064419,
                    0.11935581
                ],
                "xyz": [
                    1.776606509968155,
                    2.4769528214971177,
                    4.559772012500001
                ],
                "label": "Sr",
                "properties": {}
            },
            {
                "species": [
                    {
                        "element": "Sr",
                        "occu": 1
                    }
                ],
                "abc": [
                    0.38064419,
                    0.11935581,
                    0.75
                ],
                "xyz": [
                    1.2568006900636899,
                    -2.7770628774999997,
                    4.5597720125
                ],
                "label": "Sr",
                "properties": {}
            },
            {
                "species": [
                    {
                        "element": "Sr",
                        "occu": 1
                    }
                ],
                "abc": [
                    0.88064419,
                    0.25,
                    0.61935581
                ],
                "xyz": [
                    3.033407200031845,
                    -0.3001100535028818,
                    6.3836808175
                ],
                "label": "Sr",
                "properties": {}
            },
            {
                "species": [
                    {
                        "element": "Sr",
                        "occu": 1
                    }
                ],
                "abc": [
                    0.25,
                    0.61935581,
                    0.88064419
                ],
                "xyz": [
                    -1.776606509968155,
                    -2.476952831497118,
                    6.3836808175
                ],
                "label": "Sr",
                "properties": {}
            },
            {
                "species": [
                    {
                        "element": "Sr",
                        "occu": 1
                    }
                ],
                "abc": [
                    0.61935581,
                    0.88064419,
                    0.25
                ],
                "xyz": [
                    -1.2568006900636899,
                    2.7770628674999998,
                    6.3836808175
                ],
                "label": "Sr",
                "properties": {}
            },
            {
                "species": [
                    {
                        "element": "Sc",
                        "occu": 1
                    }
                ],
                "abc": [
                    0.75,
                    0.75,
                    0.75
                ],
                "xyz": [
                    0.0,
                    -7.499999732374363e-09,
                    8.2075896225
                ],
                "label": "Sc",
                "properties": {}
            },
            {
                "species": [
                    {
                        "element": "Sc",
                        "occu": 1
                    }
                ],
                "abc": [
                    0.25,
                    0.25,
                    0.25
                ],
                "xyz": [
                    0.0,
                    -2.4999999848063226e-09,
                    2.7358632075
                ],
                "label": "Sc",
                "properties": {}
            },
            {
                "species": [
                    {
                        "element": "Rh",
                        "occu": 1
                    }
                ],
                "abc": [
                    0.5,
                    0.5,
                    0.5
                ],
                "xyz": [
                    0.0,
                    -4.999999969612645e-09,
                    5.471726415
                ],
                "label": "Rh",
                "properties": {}
            },
            {
                "species": [
                    {
                        "element": "Rh",
                        "occu": 1
                    }
                ],
                "abc": [
                    0.0,
                    0.0,
                    0.0
                ],
                "xyz": [
                    0.0,
                    0.0,
                    0.0
                ],
                "label": "Rh",
                "properties": {}
            },
            {
                "species": [
                    {
                        "element": "O",
                        "occu": 1
                    }
                ],
                "abc": [
                    0.7918477,
                    0.59841551,
                    0.46590249
                ],
                "xyz": [
                    0.9304114858553247,
                    1.2731673233198952,
                    6.7709539275379775
                ],
                "label": "O",
                "properties": {}
            },
            {
                "species": [
                    {
                        "element": "O",
                        "occu": 1
                    }
                ],
                "abc": [
                    0.59841551,
                    0.46590249,
                    0.7918477
                ],
                "xyz": [
                    0.6373894429535043,
                    -1.4423437009756155,
                    6.7709539275379775
                ],
                "label": "O",
                "properties": {}
            },
            {
                "species": [
                    {
                        "element": "O",
                        "occu": 1
                    }
                ],
                "abc": [
                    0.46590249,
                    0.7918477,
                    0.59841551
                ],
                "xyz": [
                    -1.567800928808829,
                    0.16917635909406226,
                    6.7709539275379775
                ],
                "label": "O",
                "properties": {}
            },
            {
                "species": [
                    {
                        "element": "O",
                        "occu": 1
                    }
                ],
                "abc": [
                    0.03409751,
                    0.90158449,
                    0.7081523
                ],
                "xyz": [
                    -4.172624267046496,
                    -1.3347191840243848,
                    5.996407707462023
                ],
                "label": "O",
                "properties": {}
            },
            {
                "species": [
                    {
                        "element": "O",
                        "occu": 1
                    }
                ],
                "abc": [
                    0.90158449,
                    0.7081523,
                    0.03409751
                ],
                "xyz": [
                    0.9304114858553252,
                    4.280958411680105,
                    5.996407707462024
                ],
                "label": "O",
                "properties": {}
            },
            {
                "species": [
                    {
                        "element": "O",
                        "occu": 1
                    }
                ],
                "abc": [
                    0.7081523,
                    0.03409751,
                    0.90158449
                ],
                "xyz": [
                    3.2422127811911707,
                    -2.946239244094063,
                    5.996407707462023
                ],
                "label": "O",
                "properties": {}
            },
            {
                "species": [
                    {
                        "element": "O",
                        "occu": 1
                    }
                ],
                "abc": [
                    0.2081523,
                    0.40158449,
                    0.53409751
                ],
                "xyz": [
                    -0.930411485855325,
                    -1.2731673333198956,
                    4.172498902462023
                ],
                "label": "O",
                "properties": {}
            },
            {
                "species": [
                    {
                        "element": "O",
                        "occu": 1
                    }
                ],
                "abc": [
                    0.40158449,
                    0.53409751,
                    0.2081523
                ],
                "xyz": [
                    -0.6373894429535043,
                    1.442343690975615,
                    4.172498902462023
                ],
                "label": "O",
                "properties": {}
            },
            {
                "species": [
                    {
                        "element": "O",
                        "occu": 1
                    }
                ],
                "abc": [
                    0.53409751,
                    0.2081523,
                    0.40158449
                ],
                "xyz": [
                    1.5678009288088293,
                    -0.16917636909406264,
                    4.172498902462023
                ],
                "label": "O",
                "properties": {}
            },
            {
                "species": [
                    {
                        "element": "O",
                        "occu": 1
                    }
                ],
                "abc": [
                    0.96590249,
                    0.09841551,
                    0.2918477
                ],
                "xyz": [
                    4.172624267046495,
                    1.334719174024385,
                    4.947045122537977
                ],
                "label": "O",
                "properties": {}
            },
            {
                "species": [
                    {
                        "element": "O",
                        "occu": 1
                    }
                ],
                "abc": [
                    0.2918477,
                    0.96590249,
                    0.09841551
                ],
                "xyz": [
                    -3.24221278119117,
                    2.9462392340940626,
                    4.947045122537977
                ],
                "label": "O",
                "properties": {}
            },
            {
                "species": [
                    {
                        "element": "O",
                        "occu": 1
                    }
                ],
                "abc": [
                    0.09841551,
                    0.2918477,
                    0.96590249
                ],
                "xyz": [
                    -0.930411485855325,
                    -4.280958421680104,
                    4.947045122537977
                ],
                "label": "O",
                "properties": {}
            }
        ]
    },
    "spacegroup": {
        "source": "spglib",
        "symbol": "R-3c",
        "number": 167,
        "point_group": "-3m",
        "crystal_system": "trigonal",
        "hall": "-R 3 2\"c"
    },
    "dielectric": {
        "epsilon_ionic": [
            [
                7.7521494,
                -0.0,
                -1e-08
            ],
            [
                -0.0,
                7.75201061,
                -9.9e-07
            ],
            [
                -1e-08,
                -9.9e-07,
                10.76758839
            ]
        ],
        "epsilon_ionic_avg": 8.75724946666667,
        "epsilon_ionic_eig": [
            10.767588390000327,
            7.752149400000009,
            7.752010609999675
        ],
        "epsilon_electronic": [
            [
                4.42679691,
                -0.0,
                -0.0
            ],
            [
                0.0,
                4.4267973,
                0.0
            ],
            [
                0.0,
                0.0,
                5.47692185
            ]
        ],
        "epsilon_electronic_avg": 4.776838686666667,
        "epsilon_electronic_eig": [
            4.42679691,
            4.4267973,
            5.47692185
        ]
    },
    "phonon": {
        "lowest_freq": -0.035501861056614986,
        "frequency": [
            -0.035501861056614986,
            -0.035501859507681234,
            -0.019434715045299027,
            3.438262972995232,
            3.503786323757324,
            3.5037863342202957,
            3.643064736138275,
            3.814959445822647,
            3.8155603889674237,
            3.8155603889674237,
            4.26365610685587,
            4.332368797180989,
            4.332368856414204,
            4.517100266182729,
            4.51710039062546,
            4.690251929417709,
            5.113422761427175,
            5.113422976508271,
            5.319118263042061,
            5.396931360339852,
            5.396931496194903,
            5.51026654293191,
            5.510266587285505,
            6.260860944283375,
            6.502618793911823,
            6.504335669977654,
            6.504335820277479,
            7.092710238528742,
            7.5710511460676795,
            8.017961728964279,
            8.069751719846755,
            8.06975202270629,
            8.264285979916705,
            8.264286186928043,
            8.510605506365083,
            9.296471006186035,
            9.871798609870917,
            9.871798634628322,
            10.47152863567313,
            10.471528752370578,
            11.035737698883267,
            11.035737709956388,
            11.122837832279828,
            11.122837832279828,
            11.476454551790848,
            11.476454562438741,
            11.826309255979764,
            11.826309514302249,
            12.130864832795911,
            12.484812148442115,
            12.484812305048479,
            12.937332425165687,
            14.667655022483293,
            15.453523004516386,
            15.596287657645002,
            15.722067658036556,
            15.722067968937303,
            16.51480121121363,
            16.51480143319644,
            16.567847012740582,
            16.916328071074567,
            16.91632836002632,
            17.337635559457446,
            17.337635770905077,
            17.673622704418943,
            18.450726292309582
        ]
    },
    "born_effective_charge": {
        "avg_abs_trace": 2.3109701515151517,
        "tensors": [
            [
                [
                    2.87125,
                    -0.06516,
                    0.28266
                ],
                [
                    -0.06518,
                    2.79582,
                    -0.16311
                ],
                [
                    0.18689,
                    -0.10789,
                    2.31515
                ]
            ],
            [
                [
                    2.87125,
                    0.06516,
                    -0.28266
                ],
                [
                    0.06519,
                    2.7961,
                    -0.16323
                ],
                [
                    -0.18688,
                    -0.10791,
                    2.31515
                ]
            ],
            [
                [
                    2.75841,
                    -0.0,
                    0.0
                ],
                [
                    -0.00021,
                    2.9089,
                    0.32634
                ],
                [
                    -1e-05,
                    0.2158,
                    2.31515
                ]
            ],
            [
                [
                    2.87131,
                    -0.06522,
                    0.28255
                ],
                [
                    -0.06519,
                    2.7961,
                    -0.16323
                ],
                [
                    0.18688,
                    -0.10791,
                    2.31515
                ]
            ],
            [
                [
                    2.87131,
                    0.06522,
                    -0.28255
                ],
                [
                    0.06518,
                    2.79582,
                    -0.16311
                ],
                [
                    -0.18689,
                    -0.10789,
                    2.31515
                ]
            ],
            [
                [
                    2.75827,
                    -0.0,
                    0.0
                ],
                [
                    0.00021,
                    2.9089,
                    0.32634
                ],
                [
                    1e-05,
                    0.2158,
                    2.31515
                ]
            ],
            [
                [
                    2.13646,
                    0.0,
                    0.0
                ],
                [
                    -1e-05,
                    2.13648,
                    -0.0
                ],
                [
                    -0.0,
                    -0.0,
                    6.30591
                ]
            ],
            [
                [
                    2.13649,
                    0.0,
                    0.0
                ],
                [
                    1e-05,
                    2.13648,
                    -0.0
                ],
                [
                    -0.0,
                    -0.0,
                    6.30591
                ]
            ],
            [
                [
                    1.04012,
                    0.03142,
                    -0.0
                ],
                [
                    -0.03143,
                    1.04013,
                    0.0
                ],
                [
                    -0.0,
                    -0.0,
                    1.52472
                ]
            ],
            [
                [
                    1.04012,
                    -0.03142,
                    0.0
                ],
                [
                    0.03143,
                    1.04013,
                    0.0
                ],
                [
                    -0.0,
                    -0.0,
                    1.52472
                ]
            ],
            [
                [
                    -1.75409,
                    -0.42585,
                    -0.14806
                ],
                [
                    -0.50271,
                    -2.13841,
                    -0.20816
                ],
                [
                    -0.21071,
                    -0.35786,
                    -2.46273
                ]
            ],
            [
                [
                    -1.64025,
                    0.43694,
                    -0.10626
                ],
                [
                    0.36037,
                    -2.25217,
                    0.23252
                ],
                [
                    -0.20456,
                    0.36141,
                    -2.46273
                ]
            ],
            [
                [
                    -2.44448,
                    0.104,
                    0.25441
                ],
                [
                    0.02728,
                    -1.44798,
                    -0.02426
                ],
                [
                    0.41527,
                    -0.00355,
                    -2.46273
                ]
            ],
            [
                [
                    -1.64025,
                    -0.43694,
                    0.10626
                ],
                [
                    -0.36007,
                    -2.25231,
                    0.23221
                ],
                [
                    0.20441,
                    0.36151,
                    -2.46263
                ]
            ],
            [
                [
                    -1.75409,
                    0.42585,
                    0.14806
                ],
                [
                    0.50264,
                    -2.13845,
                    -0.20821
                ],
                [
                    0.21087,
                    -0.35778,
                    -2.46263
                ]
            ],
            [
                [
                    -2.44448,
                    -0.104,
                    -0.25441
                ],
                [
                    -0.02739,
                    -1.44811,
                    -0.02411
                ],
                [
                    -0.41529,
                    -0.00373,
                    -2.46263
                ]
            ],
            [
                [
                    -1.75403,
                    -0.42599,
                    -0.14819
                ],
                [
                    -0.50264,
                    -2.13845,
                    -0.20821
                ],
                [
                    -0.21087,
                    -0.35778,
                    -2.46263
                ]
            ],
            [
                [
                    -1.64025,
                    0.43699,
                    -0.10621
                ],
                [
                    0.36007,
                    -2.25231,
                    0.23221
                ],
                [
                    -0.20441,
                    0.36151,
                    -2.46263
                ]
            ],
            [
                [
                    -2.4444,
                    0.10416,
                    0.25431
                ],
                [
                    0.02739,
                    -1.44811,
                    -0.02411
                ],
                [
                    0.41529,
                    -0.00373,
                    -2.46263
                ]
            ],
            [
                [
                    -1.64025,
                    -0.43699,
                    0.10621
                ],
                [
                    -0.36037,
                    -2.25217,
                    0.23252
                ],
                [
                    0.20456,
                    0.36141,
                    -2.46273
                ]
            ],
            [
                [
                    -2.4444,
                    -0.10416,
                    -0.25431
                ],
                [
                    -0.02728,
                    -1.44798,
                    -0.02426
                ],
                [
                    -0.41527,
                    -0.00355,
                    -2.46273
                ]
            ],
            [
                [
                    -1.75403,
                    0.42599,
                    0.14819
                ],
                [
                    0.50271,
                    -2.13841,
                    -0.20816
                ],
                [
                    0.21071,
                    -0.35786,
                    -2.46273
                ]
            ]
        ]
    },
    "band_gap": 2.9357,
    "is_direct": false,
    "formula": "Sr3ScRhO6"
}