{
    "mp_id": "mp-12533",
    "nelements": 3,
    "nsites": 22,
    "elements": [
        "Hf",
        "La",
        "O"
    ],
    "structure": {
        "@module": "pymatgen.core.structure",
        "@class": "Structure",
        "charge": null,
        "lattice": {
            "matrix": [
                [
                    0.0,
                    5.38179209,
                    5.38179209
                ],
                [
                    5.38179209,
                    0.0,
                    5.38179209
                ],
                [
                    5.38179209,
                    5.38179209,
                    0.0
                ]
            ],
            "a": 7.611003363550245,
            "b": 7.611003363550245,
            "c": 7.611003363550245,
            "alpha": 60.00000000000001,
            "beta": 60.00000000000001,
            "gamma": 60.00000000000001,
            "volume": 311.75307350030135
        },
        "sites": [
            {
                "species": [
                    {
                        "element": "La",
                        "occu": 1
                    }
                ],
                "abc": [
                    0.625,
                    0.125,
                    0.625
                ],
                "xyz": [
                    4.0363440675,
                    6.7272401125000005,
                    4.0363440675
                ],
                "label": "La",
                "properties": {}
            },
            {
                "species": [
                    {
                        "element": "La",
                        "occu": 1
                    }
                ],
                "abc": [
                    0.625,
                    0.625,
                    0.125
                ],
                "xyz": [
                    4.0363440675,
                    4.0363440675,
                    6.7272401125000005
                ],
                "label": "La",
                "properties": {}
            },
            {
                "species": [
                    {
                        "element": "La",
                        "occu": 1
                    }
                ],
                "abc": [
                    0.125,
                    0.625,
                    0.625
                ],
                "xyz": [
                    6.7272401125000005,
                    4.0363440675,
                    4.0363440675
                ],
                "label": "La",
                "properties": {}
            },
            {
                "species": [
                    {
                        "element": "La",
                        "occu": 1
                    }
                ],
                "abc": [
                    0.625,
                    0.625,
                    0.625
                ],
                "xyz": [
                    6.7272401125000005,
                    6.7272401125000005,
                    6.7272401125000005
                ],
                "label": "La",
                "properties": {}
            },
            {
                "species": [
                    {
                        "element": "Hf",
                        "occu": 1
                    }
                ],
                "abc": [
                    0.125,
                    0.625,
                    0.125
                ],
                "xyz": [
                    4.0363440675,
                    1.3454480225,
                    4.0363440675
                ],
                "label": "Hf",
                "properties": {}
            },
            {
                "species": [
                    {
                        "element": "Hf",
                        "occu": 1
                    }
                ],
                "abc": [
                    0.125,
                    0.125,
                    0.625
                ],
                "xyz": [
                    4.0363440675,
                    4.0363440675,
                    1.3454480225
                ],
                "label": "Hf",
                "properties": {}
            },
            {
                "species": [
                    {
                        "element": "Hf",
                        "occu": 1
                    }
                ],
                "abc": [
                    0.625,
                    0.125,
                    0.125
                ],
                "xyz": [
                    1.3454480225,
                    4.0363440675,
                    4.0363440675
                ],
                "label": "Hf",
                "properties": {}
            },
            {
                "species": [
                    {
                        "element": "Hf",
                        "occu": 1
                    }
                ],
                "abc": [
                    0.125,
                    0.125,
                    0.125
                ],
                "xyz": [
                    1.3454480225,
                    1.3454480225,
                    1.3454480225
                ],
                "label": "Hf",
                "properties": {}
            },
            {
                "species": [
                    {
                        "element": "O",
                        "occu": 1
                    }
                ],
                "abc": [
                    0.5,
                    0.5,
                    0.5
                ],
                "xyz": [
                    5.38179209,
                    5.38179209,
                    5.38179209
                ],
                "label": "O",
                "properties": {}
            },
            {
                "species": [
                    {
                        "element": "O",
                        "occu": 1
                    }
                ],
                "abc": [
                    0.75,
                    0.75,
                    0.75
                ],
                "xyz": [
                    8.072688135,
                    8.072688135,
                    8.072688135
                ],
                "label": "O",
                "properties": {}
            },
            {
                "species": [
                    {
                        "element": "O",
                        "occu": 1
                    }
                ],
                "abc": [
                    0.79228847,
                    0.79228847,
                    0.20771153
                ],
                "xyz": [
                    5.38179209,
                    5.38179209,
                    8.527863641688405
                ],
                "label": "O",
                "properties": {}
            },
            {
                "species": [
                    {
                        "element": "O",
                        "occu": 1
                    }
                ],
                "abc": [
                    0.04228847,
                    0.04228847,
                    0.45771153
                ],
                "xyz": [
                    2.690896045,
                    2.690896045,
                    0.4551755066884046
                ],
                "label": "O",
                "properties": {}
            },
            {
                "species": [
                    {
                        "element": "O",
                        "occu": 1
                    }
                ],
                "abc": [
                    0.20771153,
                    0.79228847,
                    0.20771153
                ],
                "xyz": [
                    5.38179209,
                    2.2357205383115955,
                    5.38179209
                ],
                "label": "O",
                "properties": {}
            },
            {
                "species": [
                    {
                        "element": "O",
                        "occu": 1
                    }
                ],
                "abc": [
                    0.20771153,
                    0.79228847,
                    0.79228847
                ],
                "xyz": [
                    8.527863641688405,
                    5.38179209,
                    5.38179209
                ],
                "label": "O",
                "properties": {}
            },
            {
                "species": [
                    {
                        "element": "O",
                        "occu": 1
                    }
                ],
                "abc": [
                    0.79228847,
                    0.20771153,
                    0.20771153
                ],
                "xyz": [
                    2.2357205383115955,
                    5.38179209,
                    5.38179209
                ],
                "label": "O",
                "properties": {}
            },
            {
                "species": [
                    {
                        "element": "O",
                        "occu": 1
                    }
                ],
                "abc": [
                    0.79228847,
                    0.20771153,
                    0.79228847
                ],
                "xyz": [
                    5.38179209,
                    8.527863641688405,
                    5.38179209
                ],
                "label": "O",
                "properties": {}
            },
            {
                "species": [
                    {
                        "element": "O",
                        "occu": 1
                    }
                ],
                "abc": [
                    0.20771153,
                    0.20771153,
                    0.79228847
                ],
                "xyz": [
                    5.38179209,
                    5.38179209,
                    2.2357205383115955
                ],
                "label": "O",
                "properties": {}
            },
            {
                "species": [
                    {
                        "element": "O",
                        "occu": 1
                    }
                ],
                "abc": [
                    0.45771153,
                    0.04228847,
                    0.04228847
                ],
                "xyz": [
                    0.4551755066884046,
                    2.690896045,
                    2.690896045
                ],
                "label": "O",
                "properties": {}
            },
            {
                "species": [
                    {
                        "element": "O",
                        "occu": 1
                    }
                ],
                "abc": [
                    0.04228847,
                    0.45771153,
                    0.45771153
                ],
                "xyz": [
                    4.926616583311596,
                    2.690896045,
                    2.690896045
                ],
                "label": "O",
                "properties": {}
            },
            {
                "species": [
                    {
                        "element": "O",
                        "occu": 1
                    }
                ],
                "abc": [
                    0.45771153,
                    0.45771153,
                    0.04228847
                ],
                "xyz": [
                    2.690896045,
                    2.690896045,
                    4.926616583311596
                ],
                "label": "O",
                "properties": {}
            },
            {
                "species": [
                    {
                        "element": "O",
                        "occu": 1
                    }
                ],
                "abc": [
                    0.45771153,
                    0.04228847,
                    0.45771153
                ],
                "xyz": [
                    2.690896045,
                    4.926616583311596,
                    2.690896045
                ],
                "label": "O",
                "properties": {}
            },
            {
                "species": [
                    {
                        "element": "O",
                        "occu": 1
                    }
                ],
                "abc": [
                    0.04228847,
                    0.45771153,
                    0.04228847
                ],
                "xyz": [
                    2.690896045,
                    0.4551755066884046,
                    2.690896045
                ],
                "label": "O",
                "properties": {}
            }
        ]
    },
    "spacegroup": {
        "source": "spglib",
        "symbol": "Fd-3m",
        "number": 227,
        "point_group": "m-3m",
        "crystal_system": "cubic",
        "hall": "F 4d 2 3 -1d"
    },
    "dielectric": {
        "epsilon_ionic": [
            [
                16.965251,
                0.0,
                0.0
            ],
            [
                0.0,
                16.96250075,
                0.0
            ],
            [
                0.0,
                0.0,
                16.96421606
            ]
        ],
        "epsilon_ionic_avg": 16.96398927,
        "epsilon_ionic_eig": [
            16.965251,
            16.96250075,
            16.96421606
        ],
        "epsilon_electronic": [
            [
                4.42790473,
                0.0,
                0.0
            ],
            [
                -0.0,
                4.42790473,
                -0.0
            ],
            [
                -0.0,
                0.0,
                4.42790473
            ]
        ],
        "epsilon_electronic_avg": 4.42790473,
        "epsilon_electronic_eig": [
            4.42790473,
            4.42790473,
            4.42790473
        ]
    },
    "phonon": {
        "lowest_freq": -0.09791452923560436,
        "frequency": [
            -0.09791452923560436,
            -0.09791452923560436,
            -0.09791452923560436,
            1.8754814428982312,
            1.8754814428982312,
            1.8754814428982312,
            2.782861896159106,
            2.782861896159106,
            2.782861896159106,
            2.8272601696967787,
            2.8272601696967787,
            3.5591395276190667,
            3.5591395276190667,
            3.5591395276190667,
            4.032494304010969,
            4.032494304010969,
            4.2335986682476205,
            4.2335986682476205,
            4.2335986682476205,
            5.129806318422262,
            5.129806318422262,
            5.129806318422262,
            6.502213353197504,
            7.107095929898254,
            7.107095929898254,
            7.107095929898254,
            7.417038155023871,
            7.417038155023871,
            7.417038155023871,
            7.745424790426764,
            8.586877563224842,
            8.586877563224842,
            8.586877563224842,
            8.92543120242291,
            8.92543120242291,
            8.92543120242291,
            9.411125216819404,
            9.411125216819404,
            9.434036278053481,
            9.434036278053481,
            9.434036278053481,
            10.120654479529668,
            10.120654479529668,
            10.708753102316631,
            10.708753102316631,
            10.708753102316631,
            11.026193568177833,
            11.428216143912508,
            11.428216143912508,
            11.428216143912508,
            14.31883358472517,
            15.052544878689604,
            15.052544878689604,
            15.052544878689604,
            16.178740111200334,
            16.178740111200334,
            16.178740111200334,
            17.616266335569453,
            17.616266335569453,
            17.616266335569453,
            18.12645461858567,
            18.12645461858567,
            18.12645461858567,
            22.470654523091838,
            22.470654523091838,
            22.470654523091838
        ]
    },
    "born_effective_charge": {
        "avg_abs_trace": 3.357223030303031,
        "tensors": [
            [
                [
                    4.09123,
                    -0.18228,
                    0.18228
                ],
                [
                    -0.1822,
                    4.09065,
                    -0.1822
                ],
                [
                    0.18225,
                    -0.18225,
                    4.09104
                ]
            ],
            [
                [
                    4.09123,
                    0.18228,
                    -0.18228
                ],
                [
                    0.1822,
                    4.09065,
                    -0.1822
                ],
                [
                    -0.18225,
                    -0.18225,
                    4.09104
                ]
            ],
            [
                [
                    4.09123,
                    -0.18228,
                    -0.18228
                ],
                [
                    -0.1822,
                    4.09065,
                    0.1822
                ],
                [
                    -0.18225,
                    0.18225,
                    4.09104
                ]
            ],
            [
                [
                    4.09123,
                    0.18228,
                    0.18228
                ],
                [
                    0.1822,
                    4.09065,
                    0.1822
                ],
                [
                    0.18225,
                    0.18225,
                    4.09104
                ]
            ],
            [
                [
                    5.14143,
                    0.41655,
                    -0.41655
                ],
                [
                    0.41659,
                    5.14142,
                    0.41659
                ],
                [
                    -0.41652,
                    0.41652,
                    5.14132
                ]
            ],
            [
                [
                    5.14143,
                    -0.41655,
                    0.41655
                ],
                [
                    -0.41659,
                    5.14142,
                    0.41659
                ],
                [
                    0.41652,
                    0.41652,
                    5.14132
                ]
            ],
            [
                [
                    5.14143,
                    0.41655,
                    0.41655
                ],
                [
                    0.41659,
                    5.14142,
                    -0.41659
                ],
                [
                    0.41652,
                    -0.41652,
                    5.14132
                ]
            ],
            [
                [
                    5.14143,
                    -0.41655,
                    -0.41655
                ],
                [
                    -0.41659,
                    5.14142,
                    -0.41659
                ],
                [
                    -0.41652,
                    -0.41652,
                    5.14132
                ]
            ],
            [
                [
                    -2.78839,
                    -0.0,
                    0.0
                ],
                [
                    0.0,
                    -2.78791,
                    0.0
                ],
                [
                    -0.0,
                    -0.0,
                    -2.78802
                ]
            ],
            [
                [
                    -2.78839,
                    0.0,
                    0.0
                ],
                [
                    0.0,
                    -2.78791,
                    0.0
                ],
                [
                    -0.0,
                    -0.0,
                    -2.78802
                ]
            ],
            [
                [
                    -2.71179,
                    0.7441,
                    -5e-05
                ],
                [
                    0.74411,
                    -2.71168,
                    -2e-05
                ],
                [
                    -0.0,
                    -0.0,
                    -2.41484
                ]
            ],
            [
                [
                    -2.71179,
                    -0.7441,
                    -5e-05
                ],
                [
                    -0.74411,
                    -2.71168,
                    -2e-05
                ],
                [
                    0.0,
                    0.0,
                    -2.41484
                ]
            ],
            [
                [
                    -2.71179,
                    5e-05,
                    -0.7441
                ],
                [
                    0.0,
                    -2.41471,
                    0.0
                ],
                [
                    -0.74411,
                    1e-05,
                    -2.71177
                ]
            ],
            [
                [
                    -2.4149,
                    0.0,
                    0.0
                ],
                [
                    -2e-05,
                    -2.71168,
                    0.74411
                ],
                [
                    -1e-05,
                    0.74411,
                    -2.71177
                ]
            ],
            [
                [
                    -2.41486,
                    0.0,
                    0.0
                ],
                [
                    2e-05,
                    -2.71168,
                    -0.74411
                ],
                [
                    1e-05,
                    -0.74411,
                    -2.71177
                ]
            ],
            [
                [
                    -2.71179,
                    -5e-05,
                    0.7441
                ],
                [
                    0.0,
                    -2.41479,
                    0.0
                ],
                [
                    0.74411,
                    -1e-05,
                    -2.71177
                ]
            ],
            [
                [
                    -2.71179,
                    -0.7441,
                    5e-05
                ],
                [
                    -0.74411,
                    -2.71168,
                    2e-05
                ],
                [
                    -0.0,
                    -0.0,
                    -2.4148
                ]
            ],
            [
                [
                    -2.4149,
                    -0.0,
                    0.0
                ],
                [
                    -2e-05,
                    -2.71168,
                    -0.74411
                ],
                [
                    -1e-05,
                    -0.74411,
                    -2.71177
                ]
            ],
            [
                [
                    -2.41486,
                    -0.0,
                    -0.0
                ],
                [
                    2e-05,
                    -2.71168,
                    0.74411
                ],
                [
                    1e-05,
                    0.74411,
                    -2.71177
                ]
            ],
            [
                [
                    -2.71179,
                    0.7441,
                    5e-05
                ],
                [
                    0.74411,
                    -2.71168,
                    2e-05
                ],
                [
                    0.0,
                    0.0,
                    -2.4148
                ]
            ],
            [
                [
                    -2.71179,
                    5e-05,
                    0.7441
                ],
                [
                    0.0,
                    -2.41471,
                    0.0
                ],
                [
                    0.74411,
                    1e-05,
                    -2.71177
                ]
            ],
            [
                [
                    -2.71179,
                    -5e-05,
                    -0.7441
                ],
                [
                    0.0,
                    -2.41479,
                    0.0
                ],
                [
                    -0.74411,
                    -1e-05,
                    -2.71177
                ]
            ]
        ]
    },
    "band_gap": 4.321299999999999,
    "is_direct": true,
    "formula": "La2Hf2O7"
}