{
    "mp_id": "mp-1194594",
    "nelements": 3,
    "nsites": 32,
    "elements": [
        "O",
        "Pb",
        "Ta"
    ],
    "structure": {
        "@module": "pymatgen.core.structure",
        "@class": "Structure",
        "charge": null,
        "lattice": {
            "matrix": [
                [
                    3.13028051,
                    1.80726806,
                    12.35876477
                ],
                [
                    -3.13028051,
                    1.80726806,
                    12.35876477
                ],
                [
                    0.0,
                    -3.61453712,
                    12.35876477
                ]
            ],
            "a": 12.876487896634517,
            "b": 12.876487896634517,
            "c": 12.876488078356267,
            "alpha": 28.13921357434899,
            "beta": 28.13921357434899,
            "gamma": 28.139212606101204,
            "volume": 419.500253114172
        },
        "sites": [
            {
                "species": [
                    {
                        "element": "Ta",
                        "occu": 1
                    }
                ],
                "abc": [
                    0.13071992,
                    0.5,
                    0.86928008
                ],
                "xyz": [
                    -1.1559502371552408,
                    -2.0021651506148146,
                    18.538147155
                ],
                "label": "Ta",
                "properties": {}
            },
            {
                "species": [
                    {
                        "element": "Ta",
                        "occu": 1
                    }
                ],
                "abc": [
                    0.5,
                    0.86928008,
                    0.13071992
                ],
                "xyz": [
                    -1.1559502371552408,
                    2.0021641506148145,
                    18.538147155
                ],
                "label": "Ta",
                "properties": {}
            },
            {
                "species": [
                    {
                        "element": "Ta",
                        "occu": 1
                    }
                ],
                "abc": [
                    0.86928008,
                    0.13071992,
                    0.5
                ],
                "xyz": [
                    2.3119004743104816,
                    -5.00000000069889e-07,
                    18.538147155
                ],
                "label": "Ta",
                "properties": {}
            },
            {
                "species": [
                    {
                        "element": "Ta",
                        "occu": 1
                    }
                ],
                "abc": [
                    0.6402671,
                    0.3597329,
                    0.0
                ],
                "xyz": [
                    0.878150738648442,
                    1.80726806,
                    12.35876477
                ],
                "label": "Ta",
                "properties": {}
            },
            {
                "species": [
                    {
                        "element": "Ta",
                        "occu": 1
                    }
                ],
                "abc": [
                    0.3597329,
                    0.0,
                    0.6402671
                ],
                "xyz": [
                    1.1260648856757791,
                    -1.6641354193635778,
                    12.35876477
                ],
                "label": "Ta",
                "properties": {}
            },
            {
                "species": [
                    {
                        "element": "Ta",
                        "occu": 1
                    }
                ],
                "abc": [
                    0.0,
                    0.6402671,
                    0.3597329
                ],
                "xyz": [
                    -2.004215624324221,
                    -0.1431336406364221,
                    12.35876477
                ],
                "label": "Ta",
                "properties": {}
            },
            {
                "species": [
                    {
                        "element": "Ta",
                        "occu": 1
                    }
                ],
                "abc": [
                    0.24952034,
                    0.24952034,
                    0.24952034
                ],
                "xyz": [
                    0.0,
                    -2.4952034005654156e-07,
                    9.251289562171266
                ],
                "label": "Ta",
                "properties": {}
            },
            {
                "species": [
                    {
                        "element": "Ta",
                        "occu": 1
                    }
                ],
                "abc": [
                    0.75047966,
                    0.75047966,
                    0.75047966
                ],
                "xyz": [
                    0.0,
                    -7.504796601942587e-07,
                    27.825004747828736
                ],
                "label": "Ta",
                "properties": {}
            },
            {
                "species": [
                    {
                        "element": "Pb",
                        "occu": 1
                    }
                ],
                "abc": [
                    0.58203955,
                    0.58203955,
                    0.58203955
                ],
                "xyz": [
                    0.0,
                    -5.820395498901121e-07,
                    21.57986965585996
                ],
                "label": "Pb",
                "properties": {}
            },
            {
                "species": [
                    {
                        "element": "Pb",
                        "occu": 1
                    }
                ],
                "abc": [
                    0.41796045,
                    0.41796045,
                    0.41796045
                ],
                "xyz": [
                    0.0,
                    -4.179604500276213e-07,
                    15.49642465414004
                ],
                "label": "Pb",
                "properties": {}
            },
            {
                "species": [
                    {
                        "element": "O",
                        "occu": 1
                    }
                ],
                "abc": [
                    0.79744196,
                    0.03158281,
                    0.51371926
                ],
                "xyz": [
                    2.3973539706501668,
                    -0.358587346759085,
                    16.594657613091826
                ],
                "label": "O",
                "properties": {}
            },
            {
                "species": [
                    {
                        "element": "O",
                        "occu": 1
                    }
                ],
                "abc": [
                    0.03158281,
                    0.51371926,
                    0.79744196
                ],
                "xyz": [
                    -1.5092223325955896,
                    -1.8968765513026709,
                    16.594657613091826
                ],
                "label": "O",
                "properties": {}
            },
            {
                "species": [
                    {
                        "element": "O",
                        "occu": 1
                    }
                ],
                "abc": [
                    0.51371926,
                    0.79744196,
                    0.03158281
                ],
                "xyz": [
                    -0.8881316380545772,
                    2.2554625553177257,
                    16.594657613091822
                ],
                "label": "O",
                "properties": {}
            },
            {
                "species": [
                    {
                        "element": "O",
                        "occu": 1
                    }
                ],
                "abc": [
                    0.32713707,
                    0.00109864,
                    0.51545671
                ],
                "xyz": [
                    1.020591742939999,
                    -1.2699274972136527,
                    10.426996157012045
                ],
                "label": "O",
                "properties": {}
            },
            {
                "species": [
                    {
                        "element": "O",
                        "occu": 1
                    }
                ],
                "abc": [
                    0.00109864,
                    0.51545671,
                    0.32713707
                ],
                "xyz": [
                    -1.610085041682216,
                    -0.2488950975659172,
                    10.426996157012045
                ],
                "label": "O",
                "properties": {}
            },
            {
                "species": [
                    {
                        "element": "O",
                        "occu": 1
                    }
                ],
                "abc": [
                    0.51545671,
                    0.32713707,
                    0.00109864
                ],
                "xyz": [
                    0.5894932987422168,
                    1.51882175108715,
                    10.426996157012045
                ],
                "label": "O",
                "properties": {}
            },
            {
                "species": [
                    {
                        "element": "O",
                        "occu": 1
                    }
                ],
                "abc": [
                    0.20255804,
                    0.48628074,
                    0.96841719
                ],
                "xyz": [
                    -0.8881316380545771,
                    -2.2554635553177262,
                    20.48163669690818
                ],
                "label": "O",
                "properties": {}
            },
            {
                "species": [
                    {
                        "element": "O",
                        "occu": 1
                    }
                ],
                "abc": [
                    0.48628074,
                    0.96841719,
                    0.20255804
                ],
                "xyz": [
                    -1.5092223325955896,
                    1.8968755513026707,
                    20.48163669690818
                ],
                "label": "O",
                "properties": {}
            },
            {
                "species": [
                    {
                        "element": "O",
                        "occu": 1
                    }
                ],
                "abc": [
                    0.96841719,
                    0.20255804,
                    0.48628074
                ],
                "xyz": [
                    2.3973539706501668,
                    0.35858634675908463,
                    20.48163669690818
                ],
                "label": "O",
                "properties": {}
            },
            {
                "species": [
                    {
                        "element": "O",
                        "occu": 1
                    }
                ],
                "abc": [
                    0.67286293,
                    0.48454329,
                    0.99890136
                ],
                "xyz": [
                    0.5894932987422161,
                    -1.51882275108715,
                    26.649298152987956
                ],
                "label": "O",
                "properties": {}
            },
            {
                "species": [
                    {
                        "element": "O",
                        "occu": 1
                    }
                ],
                "abc": [
                    0.48454329,
                    0.99890136,
                    0.67286293
                ],
                "xyz": [
                    -1.6100850416822154,
                    0.24889409756591752,
                    26.64929815298796
                ],
                "label": "O",
                "properties": {}
            },
            {
                "species": [
                    {
                        "element": "O",
                        "occu": 1
                    }
                ],
                "abc": [
                    0.99890136,
                    0.67286293,
                    0.48454329
                ],
                "xyz": [
                    1.0205917429399993,
                    1.2699264972136524,
                    26.649298152987956
                ],
                "label": "O",
                "properties": {}
            },
            {
                "species": [
                    {
                        "element": "O",
                        "occu": 1
                    }
                ],
                "abc": [
                    0.75384921,
                    0.5,
                    0.24615079
                ],
                "xyz": [
                    0.7946192345418972,
                    1.3763204617169078,
                    18.538147155
                ],
                "label": "O",
                "properties": {}
            },
            {
                "species": [
                    {
                        "element": "O",
                        "occu": 1
                    }
                ],
                "abc": [
                    0.5,
                    0.24615079,
                    0.75384921
                ],
                "xyz": [
                    0.7946192345418971,
                    -1.376321461716908,
                    18.538147155
                ],
                "label": "O",
                "properties": {}
            },
            {
                "species": [
                    {
                        "element": "O",
                        "occu": 1
                    }
                ],
                "abc": [
                    0.24615079,
                    0.75384921,
                    0.5
                ],
                "xyz": [
                    -1.5892384690837944,
                    -5.00000000069889e-07,
                    18.538147155
                ],
                "label": "O",
                "properties": {}
            },
            {
                "species": [
                    {
                        "element": "O",
                        "occu": 1
                    }
                ],
                "abc": [
                    0.25018766,
                    0.74981234,
                    0.0
                ],
                "xyz": [
                    -1.5639653981189867,
                    1.80726806,
                    12.358764769999999
                ],
                "label": "O",
                "properties": {}
            },
            {
                "species": [
                    {
                        "element": "O",
                        "occu": 1
                    }
                ],
                "abc": [
                    0.74981234,
                    0.0,
                    0.25018766
                ],
                "xyz": [
                    2.3471229540594933,
                    0.45079930903992116,
                    12.358764769999999
                ],
                "label": "O",
                "properties": {}
            },
            {
                "species": [
                    {
                        "element": "O",
                        "occu": 1
                    }
                ],
                "abc": [
                    0.0,
                    0.25018766,
                    0.74981234
                ],
                "xyz": [
                    -0.7831575559405065,
                    -2.2580683690399215,
                    12.358764769999999
                ],
                "label": "O",
                "properties": {}
            },
            {
                "species": [
                    {
                        "element": "O",
                        "occu": 1
                    }
                ],
                "abc": [
                    0.65552161,
                    0.65552161,
                    0.65552161
                ],
                "xyz": [
                    0.0,
                    -6.555216103265593e-07,
                    24.30431213892504
                ],
                "label": "O",
                "properties": {}
            },
            {
                "species": [
                    {
                        "element": "O",
                        "occu": 1
                    }
                ],
                "abc": [
                    0.15584852,
                    0.15584852,
                    0.15584852
                ],
                "xyz": [
                    0.0,
                    -1.558485200892079e-07,
                    5.7782855952979215
                ],
                "label": "O",
                "properties": {}
            },
            {
                "species": [
                    {
                        "element": "O",
                        "occu": 1
                    }
                ],
                "abc": [
                    0.34447839,
                    0.34447839,
                    0.34447839
                ],
                "xyz": [
                    0.0,
                    -3.4447839003526326e-07,
                    12.771982171074963
                ],
                "label": "O",
                "properties": {}
            },
            {
                "species": [
                    {
                        "element": "O",
                        "occu": 1
                    }
                ],
                "abc": [
                    0.84415148,
                    0.84415148,
                    0.84415148
                ],
                "xyz": [
                    0.0,
                    -8.441514798285255e-07,
                    31.29800871470208
                ],
                "label": "O",
                "properties": {}
            }
        ]
    },
    "spacegroup": {
        "source": "spglib",
        "symbol": "R32",
        "number": 155,
        "point_group": "32",
        "crystal_system": "trigonal",
        "hall": "R 3 2\""
    },
    "dielectric": {
        "epsilon_ionic": [
            [
                25.78690398,
                -1.181e-05,
                -0.0
            ],
            [
                -1.181e-05,
                25.78672772,
                -3.34e-06
            ],
            [
                -0.0,
                -3.34e-06,
                29.92123503
            ]
        ],
        "epsilon_ionic_avg": 27.164955576666674,
        "epsilon_ionic_eig": [
            25.786904767787888,
            25.78672693220944,
            29.921235030002695
        ],
        "epsilon_electronic": [
            [
                5.42030895,
                0.0,
                -0.0
            ],
            [
                0.0,
                5.42030749,
                -1.5e-07
            ],
            [
                0.0,
                -1.5e-07,
                5.69190487
            ]
        ],
        "epsilon_electronic_avg": 5.510840436666666,
        "epsilon_electronic_eig": [
            5.691904870000083,
            5.420307489999917,
            5.42030895
        ]
    },
    "phonon": {
        "lowest_freq": -0.08301559619341684,
        "frequency": [
            -0.08301559619341684,
            -0.0074491556881723965,
            -0.007449154687494625,
            1.6829279010718432,
            1.6829279301164777,
            1.7924996411105094,
            1.7924996479278086,
            1.961086199804598,
            1.98382212933881,
            2.0871982741846566,
            2.087198508374308,
            2.9892973461954258,
            2.9892975138001163,
            3.981244865269174,
            4.1218511254946675,
            4.121851371563846,
            4.189277691775165,
            4.457247440704581,
            4.457247446187789,
            4.677569337290345,
            4.677569420889364,
            4.846080730394817,
            5.166634294512588,
            5.272089919300254,
            5.27209005837231,
            5.275159806091063,
            5.586183842512875,
            5.586184017516158,
            5.753975494277929,
            6.375172785390796,
            6.753494672009249,
            6.75349470819794,
            6.834744987148103,
            7.080679713109397,
            7.189558360701672,
            7.189558428689194,
            7.6441633743243695,
            7.810492539222451,
            7.937703012718408,
            7.9377033514059825,
            8.246815407800321,
            8.24681594124287,
            9.142130558822236,
            9.449413485744746,
            9.449413809045403,
            9.6078839969555,
            9.615261677043259,
            9.61526208373027,
            9.708258640247855,
            9.708258816469048,
            9.957954757948562,
            9.957955015652217,
            10.105916586541065,
            10.24090653377354,
            10.763378450705012,
            11.251217634770967,
            11.251217667354124,
            11.544428962299945,
            11.544429184589097,
            11.700375724824553,
            11.999275380892822,
            11.999275574387944,
            12.192543665892696,
            12.223077869619823,
            12.223078259521822,
            12.956667520457138,
            13.211501410452687,
            13.474147952480735,
            15.116030312792944,
            15.154391225294962,
            15.154391604287621,
            15.186577324572804,
            15.338433596513909,
            15.33843387535609,
            15.86151777769885,
            16.56015284979314,
            16.560153071168024,
            17.233989253499303,
            17.233989608031454,
            18.119443418134892,
            18.68382366124142,
            18.683824315283474,
            18.85310387775155,
            18.975786393425214,
            18.975787230597803,
            19.999487724442492,
            19.99948888537282,
            20.149651965483887,
            20.14965317840868,
            23.799018657900916,
            25.057997810586407,
            25.057997810586407,
            25.397678102604857,
            25.397678391292818,
            25.581111468191416,
            25.85423971031475
        ]
    },
    "born_effective_charge": {
        "avg_abs_trace": 4.050408645833333,
        "tensors": [
            [
                [
                    7.47035,
                    -0.73998,
                    1.67963
                ],
                [
                    -0.73998,
                    6.61596,
                    -0.96973
                ],
                [
                    0.74952,
                    -0.43269,
                    7.34646
                ]
            ],
            [
                [
                    7.47035,
                    0.73998,
                    -1.67963
                ],
                [
                    0.73994,
                    6.61597,
                    -0.96967
                ],
                [
                    -0.74948,
                    -0.43276,
                    7.34646
                ]
            ],
            [
                [
                    6.18888,
                    0.0,
                    -0.0
                ],
                [
                    -1e-05,
                    7.8976,
                    1.93941
                ],
                [
                    -4e-05,
                    0.86545,
                    7.34646
                ]
            ],
            [
                [
                    6.66864,
                    0.0,
                    -0.0
                ],
                [
                    -1e-05,
                    7.58813,
                    0.75144
                ],
                [
                    -4e-05,
                    0.38262,
                    7.29754
                ]
            ],
            [
                [
                    7.35833,
                    -0.39814,
                    0.65081
                ],
                [
                    -0.39811,
                    6.89856,
                    -0.37572
                ],
                [
                    0.33138,
                    -0.19127,
                    7.29754
                ]
            ],
            [
                [
                    7.35833,
                    0.39814,
                    -0.65081
                ],
                [
                    0.39811,
                    6.89858,
                    -0.37573
                ],
                [
                    -0.33134,
                    -0.19135,
                    7.29754
                ]
            ],
            [
                [
                    6.73871,
                    0.14584,
                    -5e-05
                ],
                [
                    -0.14589,
                    6.73868,
                    1e-05
                ],
                [
                    -0.0,
                    -0.0,
                    9.01446
                ]
            ],
            [
                [
                    6.73871,
                    -0.14584,
                    5e-05
                ],
                [
                    0.14589,
                    6.7387,
                    -0.0
                ],
                [
                    -0.0,
                    -0.0,
                    9.0145
                ]
            ],
            [
                [
                    3.42104,
                    -0.01262,
                    -4e-05
                ],
                [
                    0.0126,
                    3.42103,
                    -0.0
                ],
                [
                    -0.0,
                    -0.0,
                    3.395
                ]
            ],
            [
                [
                    3.42104,
                    0.01262,
                    4e-05
                ],
                [
                    -0.01257,
                    3.42101,
                    -0.0
                ],
                [
                    -0.0,
                    -0.0,
                    3.39503
                ]
            ],
            [
                [
                    -2.07982,
                    0.86795,
                    0.40441
                ],
                [
                    0.63203,
                    -2.39873,
                    -1.73402
                ],
                [
                    0.23195,
                    -1.53254,
                    -4.60637
                ]
            ],
            [
                [
                    -2.96853,
                    -0.11899,
                    -1.70393
                ],
                [
                    -0.35492,
                    -1.51005,
                    0.51679
                ],
                [
                    -1.44319,
                    0.5654,
                    -4.60637
                ]
            ],
            [
                [
                    -1.66953,
                    -0.3951,
                    1.29952
                ],
                [
                    -0.63103,
                    -2.80912,
                    1.2172
                ],
                [
                    1.21125,
                    0.96714,
                    -4.60637
                ]
            ],
            [
                [
                    -2.50319,
                    1.07816,
                    -0.47637
                ],
                [
                    0.88748,
                    -1.97336,
                    1.34514
                ],
                [
                    -0.42801,
                    1.4185,
                    -4.72592
                ]
            ],
            [
                [
                    -2.95699,
                    -0.62548,
                    1.40309
                ],
                [
                    -0.81611,
                    -1.51961,
                    -0.26004
                ],
                [
                    1.44246,
                    -0.33858,
                    -4.72592
                ]
            ],
            [
                [
                    -1.25469,
                    -0.16669,
                    -0.92667
                ],
                [
                    -0.3573,
                    -3.22184,
                    -1.08509
                ],
                [
                    -1.01445,
                    -1.07992,
                    -4.72592
                ]
            ],
            [
                [
                    -1.66953,
                    0.3951,
                    -1.29952
                ],
                [
                    0.63111,
                    -2.80907,
                    1.21722
                ],
                [
                    -1.21128,
                    0.96707,
                    -4.60635
                ]
            ],
            [
                [
                    -2.96853,
                    0.11899,
                    1.70393
                ],
                [
                    0.35494,
                    -1.51001,
                    0.5168
                ],
                [
                    1.44314,
                    0.56547,
                    -4.60635
                ]
            ],
            [
                [
                    -2.07982,
                    -0.86795,
                    -0.40441
                ],
                [
                    -0.63204,
                    -2.39873,
                    -1.73398
                ],
                [
                    -0.23186,
                    -1.53253,
                    -4.60635
                ]
            ],
            [
                [
                    -1.25469,
                    0.16669,
                    0.92667
                ],
                [
                    0.3573,
                    -3.22189,
                    -1.08501
                ],
                [
                    1.01453,
                    -1.07994,
                    -4.72588
                ]
            ],
            [
                [
                    -2.95699,
                    0.62548,
                    -1.40309
                ],
                [
                    0.81611,
                    -1.51961,
                    -0.26008
                ],
                [
                    -1.44252,
                    -0.33863,
                    -4.72588
                ]
            ],
            [
                [
                    -2.50319,
                    -1.07816,
                    0.47637
                ],
                [
                    -0.8875,
                    -1.97342,
                    1.3451
                ],
                [
                    0.42799,
                    1.41858,
                    -4.72588
                ]
            ],
            [
                [
                    -4.17515,
                    1.03681,
                    0.0957
                ],
                [
                    1.03653,
                    -2.97836,
                    -0.05529
                ],
                [
                    -0.199,
                    0.11488,
                    -1.30612
                ]
            ],
            [
                [
                    -4.17515,
                    -1.03681,
                    -0.0957
                ],
                [
                    -1.03653,
                    -2.97838,
                    -0.05523
                ],
                [
                    0.19899,
                    0.1149,
                    -1.30612
                ]
            ],
            [
                [
                    -2.37998,
                    0.0,
                    0.0
                ],
                [
                    0.0,
                    -4.7737,
                    0.11052
                ],
                [
                    1e-05,
                    -0.22978,
                    -1.30612
                ]
            ],
            [
                [
                    -2.18359,
                    0.0,
                    0.0
                ],
                [
                    1e-05,
                    -5.46639,
                    0.06606
                ],
                [
                    -1e-05,
                    -0.11643,
                    -1.01427
                ]
            ],
            [
                [
                    -4.64583,
                    1.42115,
                    0.05723
                ],
                [
                    1.42147,
                    -3.00433,
                    -0.03304
                ],
                [
                    -0.10082,
                    0.05822,
                    -1.01427
                ]
            ],
            [
                [
                    -4.64583,
                    -1.42115,
                    -0.05723
                ],
                [
                    -1.42149,
                    -3.0043,
                    -0.03303
                ],
                [
                    0.10083,
                    0.05821,
                    -1.01427
                ]
            ],
            [
                [
                    -3.3677,
                    0.08062,
                    -4e-05
                ],
                [
                    -0.08053,
                    -3.36777,
                    -1e-05
                ],
                [
                    -0.0,
                    0.0,
                    -1.74117
                ]
            ],
            [
                [
                    -3.51399,
                    -0.18,
                    -5e-05
                ],
                [
                    0.18015,
                    -3.51391,
                    0.0
                ],
                [
                    -0.0,
                    0.0,
                    -1.15695
                ]
            ],
            [
                [
                    -3.3677,
                    -0.08062,
                    4e-05
                ],
                [
                    0.08047,
                    -3.36775,
                    -2e-05
                ],
                [
                    -0.0,
                    0.0,
                    -1.74116
                ]
            ],
            [
                [
                    -3.51399,
                    0.18,
                    5e-05
                ],
                [
                    -0.18013,
                    -3.5139,
                    1e-05
                ],
                [
                    -0.0,
                    0.0,
                    -1.15699
                ]
            ]
        ]
    },
    "band_gap": 3.5024999999999995,
    "is_direct": false,
    "formula": "Ta4PbO11"
}