{
    "mp_id": "mp-19330",
    "nelements": 3,
    "nsites": 12,
    "elements": [
        "Ca",
        "Mo",
        "O"
    ],
    "structure": {
        "@module": "pymatgen.core.structure",
        "@class": "Structure",
        "charge": null,
        "lattice": {
            "matrix": [
                [
                    -2.60801591,
                    2.60801593,
                    5.66216913
                ],
                [
                    2.60801591,
                    -2.60801593,
                    5.66216913
                ],
                [
                    2.60801593,
                    2.60801591,
                    -5.66216913
                ]
            ],
            "a": 6.757488685500839,
            "b": 6.757488685500839,
            "c": 6.757488685500839,
            "alpha": 134.59521697149003,
            "beta": 134.59521697149003,
            "gamma": 66.15979569840046,
            "volume": 154.05056845657742
        },
        "sites": [
            {
                "species": [
                    {
                        "element": "Ca",
                        "occu": 1
                    }
                ],
                "abc": [
                    0.25,
                    0.75,
                    0.5
                ],
                "xyz": [
                    2.6080159199999997,
                    -9.999999717180685e-09,
                    2.831084565
                ],
                "label": "Ca",
                "properties": {}
            },
            {
                "species": [
                    {
                        "element": "Ca",
                        "occu": 1
                    }
                ],
                "abc": [
                    0.5,
                    0.5,
                    0.0
                ],
                "xyz": [
                    0.0,
                    0.0,
                    5.66216913
                ],
                "label": "Ca",
                "properties": {}
            },
            {
                "species": [
                    {
                        "element": "Mo",
                        "occu": 1
                    }
                ],
                "abc": [
                    0.75,
                    0.25,
                    0.5
                ],
                "xyz": [
                    1.0000000161269895e-08,
                    2.6080159199999997,
                    2.831084565
                ],
                "label": "Mo",
                "properties": {}
            },
            {
                "species": [
                    {
                        "element": "Mo",
                        "occu": 1
                    }
                ],
                "abc": [
                    0.0,
                    0.0,
                    0.0
                ],
                "xyz": [
                    0.0,
                    0.0,
                    0.0
                ],
                "label": "Mo",
                "properties": {}
            },
            {
                "species": [
                    {
                        "element": "O",
                        "occu": 1
                    }
                ],
                "abc": [
                    0.93180669,
                    0.33081159,
                    0.08988875
                ],
                "xyz": [
                    -1.3329734907042536,
                    1.8018360847819557,
                    6.640192942605409
                ],
                "label": "O",
                "properties": {}
            },
            {
                "species": [
                    {
                        "element": "O",
                        "occu": 1
                    }
                ],
                "abc": [
                    0.24092284,
                    0.84191793,
                    0.91011125
                ],
                "xyz": [
                    3.9409893946240944,
                    0.8061798512982039,
                    0.9780237559837177
                ],
                "label": "O",
                "properties": {}
            },
            {
                "species": [
                    {
                        "element": "O",
                        "occu": 1
                    }
                ],
                "abc": [
                    0.81819331,
                    0.91918841,
                    0.41011125
                ],
                "xyz": [
                    1.3329735007042538,
                    0.8061798352180447,
                    7.515229882394589
                ],
                "label": "O",
                "properties": {}
            },
            {
                "species": [
                    {
                        "element": "O",
                        "occu": 1
                    }
                ],
                "abc": [
                    0.50907716,
                    0.40808207,
                    0.58988875
                ],
                "xyz": [
                    1.2750424553759054,
                    1.8018360487017964,
                    1.8530608090162826
                ],
                "label": "O",
                "properties": {}
            },
            {
                "species": [
                    {
                        "element": "O",
                        "occu": 1
                    }
                ],
                "abc": [
                    0.15808207,
                    0.06819331,
                    0.39900491
                ],
                "xyz": [
                    0.8061798452180446,
                    1.2750424714560649,
                    -0.978023812605409
                ],
                "label": "O",
                "properties": {}
            },
            {
                "species": [
                    {
                        "element": "O",
                        "occu": 1
                    }
                ],
                "abc": [
                    0.66918841,
                    0.75907716,
                    0.60099509
                ],
                "xyz": [
                    1.801836058701796,
                    1.3329734646240943,
                    4.684145374016283
                ],
                "label": "O",
                "properties": {}
            },
            {
                "species": [
                    {
                        "element": "O",
                        "occu": 1
                    }
                ],
                "abc": [
                    0.08081159,
                    0.49092284,
                    0.89900491
                ],
                "xyz": [
                    3.414195791298204,
                    1.2750424353759056,
                    -1.8530608090162821
                ],
                "label": "O",
                "properties": {}
            },
            {
                "species": [
                    {
                        "element": "O",
                        "occu": 1
                    }
                ],
                "abc": [
                    0.59191793,
                    0.18180669,
                    0.10099509
                ],
                "xyz": [
                    -0.8061798352180449,
                    1.3329734485439353,
                    3.8091083776054084
                ],
                "label": "O",
                "properties": {}
            }
        ]
    },
    "spacegroup": {
        "source": "spglib",
        "symbol": "I4_1/a",
        "number": 88,
        "point_group": "4/m",
        "crystal_system": "tetragonal",
        "hall": "I 4bw -1bw"
    },
    "dielectric": {
        "epsilon_ionic": [
            [
                9.13186707,
                -5.203e-05,
                -0.0
            ],
            [
                -5.203e-05,
                9.13180422,
                -0.0
            ],
            [
                -0.0,
                -0.0,
                6.466883
            ]
        ],
        "epsilon_ionic_avg": 8.243518096666666,
        "epsilon_ionic_eig": [
            9.13189642864521,
            9.13177486135479,
            6.466883
        ],
        "epsilon_electronic": [
            [
                4.15355824,
                1.039e-05,
                0.0
            ],
            [
                -1.039e-05,
                4.15355824,
                -0.0
            ],
            [
                0.0,
                0.0,
                4.21498989
            ]
        ],
        "epsilon_electronic_avg": 4.174035456666666,
        "epsilon_electronic_eig": [
            4.15355824,
            4.15355824,
            4.21498989
        ]
    },
    "phonon": {
        "lowest_freq": -0.02587773160645885,
        "frequency": [
            -0.02587773160645885,
            -0.02587773160645885,
            -0.01872619188614378,
            2.975257512414702,
            4.022095451458207,
            4.022095451458207,
            4.2582941569316,
            4.2582941569316,
            5.445203729674273,
            5.571713964942233,
            5.571713964942233,
            5.921495470478617,
            5.921495470478617,
            6.130132365699333,
            6.2614376773658345,
            6.791127513878272,
            7.536023734956149,
            7.979934162359805,
            7.979934162359805,
            8.861420340472634,
            8.861420340472634,
            9.260351925495915,
            9.466715104098428,
            11.268566444595816,
            11.580460003024076,
            11.580460003024076,
            12.430377812173901,
            12.519978547774594,
            22.553843555683997,
            23.175776247365146,
            23.175776247365146,
            23.278673315254366,
            23.278673315254366,
            24.616791588057243,
            25.526984649513153,
            25.643929861205116
        ]
    },
    "born_effective_charge": {
        "avg_abs_trace": 2.497306666666667,
        "tensors": [
            [
                [
                    3.04012,
                    0.20614,
                    -6e-05
                ],
                [
                    -0.20616,
                    3.04011,
                    3e-05
                ],
                [
                    0.0,
                    -0.0,
                    2.72096
                ]
            ],
            [
                [
                    3.04012,
                    0.20614,
                    6e-05
                ],
                [
                    -0.20616,
                    3.04011,
                    -3e-05
                ],
                [
                    0.0,
                    -0.0,
                    2.72096
                ]
            ],
            [
                [
                    4.39848,
                    -0.36077,
                    5e-05
                ],
                [
                    0.36075,
                    4.39849,
                    -2e-05
                ],
                [
                    0.0,
                    -0.0,
                    4.8776
                ]
            ],
            [
                [
                    4.39848,
                    -0.36077,
                    -5e-05
                ],
                [
                    0.36075,
                    4.39849,
                    2e-05
                ],
                [
                    0.0,
                    -0.0,
                    4.8776
                ]
            ],
            [
                [
                    -2.13089,
                    0.79047,
                    -0.71848
                ],
                [
                    0.71305,
                    -1.58829,
                    0.66004
                ],
                [
                    -0.87315,
                    0.5171,
                    -1.89965
                ]
            ],
            [
                [
                    -2.13094,
                    0.7905,
                    0.71863
                ],
                [
                    0.71333,
                    -1.5885,
                    -0.65997
                ],
                [
                    0.87315,
                    -0.5171,
                    -1.89965
                ]
            ],
            [
                [
                    -2.13094,
                    0.7905,
                    -0.71863
                ],
                [
                    0.71333,
                    -1.5885,
                    0.65997
                ],
                [
                    -0.87313,
                    0.5171,
                    -1.89963
                ]
            ],
            [
                [
                    -2.13089,
                    0.79047,
                    0.71848
                ],
                [
                    0.71305,
                    -1.58829,
                    -0.66004
                ],
                [
                    0.87313,
                    -0.5171,
                    -1.89963
                ]
            ],
            [
                [
                    -1.58848,
                    -0.71333,
                    0.65986
                ],
                [
                    -0.79046,
                    -2.13091,
                    0.71855
                ],
                [
                    0.5171,
                    0.87313,
                    -1.89963
                ]
            ],
            [
                [
                    -1.58829,
                    -0.71301,
                    -0.66013
                ],
                [
                    -0.79051,
                    -2.1309,
                    -0.71855
                ],
                [
                    -0.5171,
                    -0.87313,
                    -1.89963
                ]
            ],
            [
                [
                    -1.58848,
                    -0.71333,
                    -0.65986
                ],
                [
                    -0.79046,
                    -2.13091,
                    -0.71855
                ],
                [
                    -0.5171,
                    -0.87315,
                    -1.89965
                ]
            ],
            [
                [
                    -1.58829,
                    -0.71301,
                    0.66013
                ],
                [
                    -0.79051,
                    -2.1309,
                    0.71855
                ],
                [
                    0.5171,
                    0.87315,
                    -1.89965
                ]
            ]
        ]
    },
    "band_gap": 3.3136,
    "is_direct": true,
    "formula": "CaMoO4"
}