{
    "mp_id": "mp-1227107",
    "nelements": 5,
    "nsites": 24,
    "elements": [
        "B",
        "Bi",
        "Ca",
        "Ga",
        "O"
    ],
    "structure": {
        "@module": "pymatgen.core.structure",
        "@class": "Structure",
        "charge": null,
        "lattice": {
            "matrix": [
                [
                    5.23197582,
                    -5.2424009,
                    0.0
                ],
                [
                    5.23197582,
                    5.2424009,
                    0.0
                ],
                [
                    0.0,
                    0.0,
                    4.77897821
                ]
            ],
            "a": 7.406506475888985,
            "b": 7.406506475888985,
            "c": 4.77897821,
            "alpha": 90.0,
            "beta": 90.0,
            "gamma": 90.11405220641171,
            "volume": 262.1567254398062
        },
        "sites": [
            {
                "species": [
                    {
                        "element": "Ca",
                        "occu": 1
                    }
                ],
                "abc": [
                    0.83835895,
                    0.83835895,
                    0.50853914
                ],
                "xyz": [
                    8.772547509761178,
                    0.0,
                    2.4302974689921393
                ],
                "label": "Ca",
                "properties": {}
            },
            {
                "species": [
                    {
                        "element": "Ca",
                        "occu": 1
                    }
                ],
                "abc": [
                    0.16164105,
                    0.16164105,
                    0.50853914
                ],
                "xyz": [
                    1.691404130238822,
                    0.0,
                    2.4302974689921393
                ],
                "label": "Ca",
                "properties": {}
            },
            {
                "species": [
                    {
                        "element": "Ga",
                        "occu": 1
                    }
                ],
                "abc": [
                    0.0,
                    0.5,
                    0.00188008
                ],
                "xyz": [
                    2.61598791,
                    2.62120045,
                    0.0089848613530568
                ],
                "label": "Ga",
                "properties": {}
            },
            {
                "species": [
                    {
                        "element": "Ga",
                        "occu": 1
                    }
                ],
                "abc": [
                    0.5,
                    0.0,
                    0.00188008
                ],
                "xyz": [
                    2.61598791,
                    -2.62120045,
                    0.0089848613530568
                ],
                "label": "Ga",
                "properties": {}
            },
            {
                "species": [
                    {
                        "element": "Bi",
                        "occu": 1
                    }
                ],
                "abc": [
                    0.6660435,
                    0.3339565,
                    0.49837032
                ],
                "xyz": [
                    5.23197582,
                    -1.7409331876782999,
                    2.381700899790727
                ],
                "label": "Bi",
                "properties": {}
            },
            {
                "species": [
                    {
                        "element": "Bi",
                        "occu": 1
                    }
                ],
                "abc": [
                    0.3339565,
                    0.6660435,
                    0.49837032
                ],
                "xyz": [
                    5.23197582,
                    1.7409331876782999,
                    2.381700899790727
                ],
                "label": "Bi",
                "properties": {}
            },
            {
                "species": [
                    {
                        "element": "B",
                        "occu": 1
                    }
                ],
                "abc": [
                    0.6353836,
                    0.6353836,
                    0.94632042
                ],
                "xyz": [
                    6.648623263249104,
                    0.0,
                    4.522444666858048
                ],
                "label": "B",
                "properties": {}
            },
            {
                "species": [
                    {
                        "element": "B",
                        "occu": 1
                    }
                ],
                "abc": [
                    0.13129054,
                    0.86870946,
                    0.06005849
                ],
                "xyz": [
                    5.23197582,
                    3.865845609885028,
                    0.2870182150355029
                ],
                "label": "B",
                "properties": {}
            },
            {
                "species": [
                    {
                        "element": "B",
                        "occu": 1
                    }
                ],
                "abc": [
                    0.3646164,
                    0.3646164,
                    0.94632042
                ],
                "xyz": [
                    3.815328376750896,
                    0.0,
                    4.522444666858048
                ],
                "label": "B",
                "properties": {}
            },
            {
                "species": [
                    {
                        "element": "B",
                        "occu": 1
                    }
                ],
                "abc": [
                    0.86870946,
                    0.13129054,
                    0.06005849
                ],
                "xyz": [
                    5.23197582,
                    -3.865845609885028,
                    0.2870182150355029
                ],
                "label": "B",
                "properties": {}
            },
            {
                "species": [
                    {
                        "element": "O",
                        "occu": 1
                    }
                ],
                "abc": [
                    0.5,
                    0.5,
                    0.84966311
                ],
                "xyz": [
                    5.23197582,
                    0.0,
                    4.060521488530833
                ],
                "label": "O",
                "properties": {}
            },
            {
                "species": [
                    {
                        "element": "O",
                        "occu": 1
                    }
                ],
                "abc": [
                    0.0,
                    0.0,
                    0.16293796
                ],
                "xyz": [
                    0.0,
                    0.0,
                    0.7786769604218515
                ],
                "label": "O",
                "properties": {}
            },
            {
                "species": [
                    {
                        "element": "O",
                        "occu": 1
                    }
                ],
                "abc": [
                    0.64891632,
                    0.64891632,
                    0.24140823
                ],
                "xyz": [
                    6.790228990886765,
                    0.0,
                    1.1536846708846684
                ],
                "label": "O",
                "properties": {}
            },
            {
                "species": [
                    {
                        "element": "O",
                        "occu": 1
                    }
                ],
                "abc": [
                    0.1443069,
                    0.8556931,
                    0.76213548
                ],
                "xyz": [
                    5.23197582,
                    3.7293716551275797,
                    3.6422288519878907
                ],
                "label": "O",
                "properties": {}
            },
            {
                "species": [
                    {
                        "element": "O",
                        "occu": 1
                    }
                ],
                "abc": [
                    0.35108368,
                    0.35108368,
                    0.24140823
                ],
                "xyz": [
                    3.6737226491132353,
                    0.0,
                    1.1536846708846684
                ],
                "label": "O",
                "properties": {}
            },
            {
                "species": [
                    {
                        "element": "O",
                        "occu": 1
                    }
                ],
                "abc": [
                    0.8556931,
                    0.1443069,
                    0.76213548
                ],
                "xyz": [
                    5.23197582,
                    -3.7293716551275797,
                    3.6422288519878907
                ],
                "label": "O",
                "properties": {}
            },
            {
                "species": [
                    {
                        "element": "O",
                        "occu": 1
                    }
                ],
                "abc": [
                    0.92229899,
                    0.30640821,
                    0.21142103
                ],
                "xyz": [
                    6.428566360259904,
                    -3.2287463793737015,
                    1.0103764955057564
                ],
                "label": "O",
                "properties": {}
            },
            {
                "species": [
                    {
                        "element": "O",
                        "occu": 1
                    }
                ],
                "abc": [
                    0.42086596,
                    0.19248487,
                    0.79324163
                ],
                "xyz": [
                    3.20903671173693,
                    -1.197265231758981,
                    3.7908844650348823
                ],
                "label": "O",
                "properties": {}
            },
            {
                "species": [
                    {
                        "element": "O",
                        "occu": 1
                    }
                ],
                "abc": [
                    0.07770101,
                    0.69359179,
                    0.21142103
                ],
                "xyz": [
                    4.035385279740096,
                    3.228746379373702,
                    1.0103764955057564
                ],
                "label": "O",
                "properties": {}
            },
            {
                "species": [
                    {
                        "element": "O",
                        "occu": 1
                    }
                ],
                "abc": [
                    0.57913404,
                    0.80751513,
                    0.79324163
                ],
                "xyz": [
                    7.254914928263069,
                    1.1972652317589807,
                    3.7908844650348823
                ],
                "label": "O",
                "properties": {}
            },
            {
                "species": [
                    {
                        "element": "O",
                        "occu": 1
                    }
                ],
                "abc": [
                    0.80751513,
                    0.57913404,
                    0.79324163
                ],
                "xyz": [
                    7.254914928263069,
                    -1.1972652317589807,
                    3.7908844650348823
                ],
                "label": "O",
                "properties": {}
            },
            {
                "species": [
                    {
                        "element": "O",
                        "occu": 1
                    }
                ],
                "abc": [
                    0.30640821,
                    0.92229899,
                    0.21142103
                ],
                "xyz": [
                    6.428566360259904,
                    3.2287463793737015,
                    1.0103764955057564
                ],
                "label": "O",
                "properties": {}
            },
            {
                "species": [
                    {
                        "element": "O",
                        "occu": 1
                    }
                ],
                "abc": [
                    0.19248487,
                    0.42086596,
                    0.79324163
                ],
                "xyz": [
                    3.20903671173693,
                    1.197265231758981,
                    3.7908844650348823
                ],
                "label": "O",
                "properties": {}
            },
            {
                "species": [
                    {
                        "element": "O",
                        "occu": 1
                    }
                ],
                "abc": [
                    0.69359179,
                    0.07770101,
                    0.21142103
                ],
                "xyz": [
                    4.035385279740096,
                    -3.228746379373702,
                    1.0103764955057564
                ],
                "label": "O",
                "properties": {}
            }
        ]
    },
    "spacegroup": {
        "source": "spglib",
        "symbol": "Cmm2",
        "number": 35,
        "point_group": "mm2",
        "crystal_system": "orthorhombic",
        "hall": "C 2 -2"
    },
    "dielectric": {
        "epsilon_ionic": [
            [
                9.95426309,
                0.0,
                -9.95e-06
            ],
            [
                0.0,
                21.80973437,
                -1.446e-05
            ],
            [
                -9.95e-06,
                -1.446e-05,
                10.48332506
            ]
        ],
        "epsilon_ionic_avg": 14.082440839999999,
        "epsilon_ionic_eig": [
            9.954263089812873,
            10.483325060168664,
            21.80973437001846
        ],
        "epsilon_electronic": [
            [
                3.95947742,
                0.0,
                0.0
            ],
            [
                0.0,
                4.33646932,
                0.0
            ],
            [
                0.0,
                0.0,
                4.26257019
            ]
        ],
        "epsilon_electronic_avg": 4.18617231,
        "epsilon_electronic_eig": [
            3.95947742,
            4.33646932,
            4.26257019
        ]
    },
    "phonon": {
        "lowest_freq": -0.043388219517649484,
        "frequency": [
            -0.043388219517649484,
            -0.04074837904796079,
            -0.038759650125526464,
            1.7785378054937833,
            2.1859964626740997,
            3.136688114387833,
            3.2866847830548056,
            3.4189146719164816,
            4.277155430068907,
            4.354680262179098,
            4.75372464871761,
            4.872377482811688,
            5.007280616924288,
            5.3586022544444685,
            5.5629039322985046,
            5.714707668129715,
            5.777988581371571,
            6.155216119707352,
            6.732720938595716,
            6.772793992469637,
            6.942565167381629,
            7.117383447269507,
            7.176637006545242,
            7.59251052984143,
            7.818054494386739,
            7.847968318641529,
            7.971944460259491,
            8.424061871548053,
            8.88206280826132,
            9.55517240159362,
            9.731956917829157,
            9.808610941470791,
            10.109238613497942,
            10.305262165016265,
            10.630993827487327,
            11.089536003053684,
            11.434255221265046,
            12.04799297015374,
            12.237209866201985,
            13.273754546872196,
            15.091947820969956,
            15.378962082628085,
            15.446070703596128,
            15.500084291581333,
            15.939314375299153,
            16.201947290429427,
            17.870796702297678,
            17.960744087814337,
            18.036828399381676,
            18.26241422539908,
            18.915230904301882,
            19.098279854814578,
            20.4318079695212,
            20.488428678190342,
            20.897035835990067,
            21.4714555488383,
            22.241977298295822,
            22.33251433771004,
            22.39787553158049,
            22.627988886856524,
            22.742029164126123,
            23.123721463465323,
            23.52551852493439,
            26.325492420794415,
            26.5505447282785,
            27.431067651553384,
            28.62020470726492,
            29.151372966757563,
            30.84662842187723,
            31.598551546460076,
            31.61685458815401,
            31.904144042014458
        ]
    },
    "born_effective_charge": {
        "avg_abs_trace": 2.511917638888889,
        "tensors": [
            [
                [
                    2.87125,
                    0.0,
                    0.21732
                ],
                [
                    0.0,
                    2.51551,
                    0.0
                ],
                [
                    0.29506,
                    0.0,
                    2.26964
                ]
            ],
            [
                [
                    2.87125,
                    0.0,
                    -0.21732
                ],
                [
                    -0.0,
                    2.51551,
                    0.0
                ],
                [
                    -0.29506,
                    0.0,
                    2.26964
                ]
            ],
            [
                [
                    3.4942,
                    0.53344,
                    -1e-05
                ],
                [
                    0.64043,
                    2.72807,
                    -1e-05
                ],
                [
                    0.0,
                    0.0,
                    2.7562
                ]
            ],
            [
                [
                    3.4942,
                    -0.53344,
                    -1e-05
                ],
                [
                    -0.64043,
                    2.72807,
                    -1e-05
                ],
                [
                    0.0,
                    0.0,
                    2.7562
                ]
            ],
            [
                [
                    3.71764,
                    0.0,
                    -0.0
                ],
                [
                    -0.0,
                    5.04266,
                    0.36361
                ],
                [
                    0.0,
                    0.5521,
                    4.71599
                ]
            ],
            [
                [
                    3.71764,
                    -0.0,
                    -0.0
                ],
                [
                    -0.0,
                    5.04266,
                    -0.36362
                ],
                [
                    0.0,
                    -0.5521,
                    4.71599
                ]
            ],
            [
                [
                    1.72787,
                    0.0,
                    0.40163
                ],
                [
                    -0.0,
                    2.31164,
                    -1e-05
                ],
                [
                    -0.4718,
                    0.0,
                    3.2122
                ]
            ],
            [
                [
                    2.0272,
                    0.0,
                    -1e-05
                ],
                [
                    -0.0,
                    2.73316,
                    0.48682
                ],
                [
                    0.0,
                    -0.23181,
                    3.09129
                ]
            ],
            [
                [
                    1.72787,
                    0.0,
                    -0.40164
                ],
                [
                    0.0,
                    2.31164,
                    -1e-05
                ],
                [
                    0.4718,
                    0.0,
                    3.2122
                ]
            ],
            [
                [
                    2.0272,
                    -0.0,
                    -1e-05
                ],
                [
                    -0.0,
                    2.73316,
                    -0.48684
                ],
                [
                    0.0,
                    0.23181,
                    3.09129
                ]
            ],
            [
                [
                    -2.30774,
                    0.0,
                    -1e-05
                ],
                [
                    -0.0,
                    -2.121,
                    -0.0
                ],
                [
                    -0.0,
                    0.0,
                    -2.29148
                ]
            ],
            [
                [
                    -1.28693,
                    0.0,
                    -1e-05
                ],
                [
                    -0.0,
                    -3.63254,
                    0.0
                ],
                [
                    0.0,
                    0.0,
                    -1.83567
                ]
            ],
            [
                [
                    -1.73587,
                    0.0,
                    -0.23613
                ],
                [
                    -0.0,
                    -1.88965,
                    2e-05
                ],
                [
                    -0.25345,
                    0.0,
                    -2.93545
                ]
            ],
            [
                [
                    -1.3446,
                    -0.0,
                    0.0
                ],
                [
                    -0.0,
                    -2.25324,
                    -0.71112
                ],
                [
                    0.0,
                    -0.53419,
                    -2.88491
                ]
            ],
            [
                [
                    -1.73587,
                    0.0,
                    0.23612
                ],
                [
                    0.0,
                    -1.88965,
                    2e-05
                ],
                [
                    0.25345,
                    0.0,
                    -2.93545
                ]
            ],
            [
                [
                    -1.3446,
                    0.0,
                    0.0
                ],
                [
                    -0.0,
                    -2.25325,
                    0.71114
                ],
                [
                    0.0,
                    0.53419,
                    -2.88491
                ]
            ],
            [
                [
                    -2.40138,
                    -0.15877,
                    -0.30335
                ],
                [
                    -0.06446,
                    -1.96021,
                    -0.46262
                ],
                [
                    -0.29919,
                    -0.49776,
                    -2.05414
                ]
            ],
            [
                [
                    -2.07879,
                    0.34203,
                    -0.17569
                ],
                [
                    0.39834,
                    -2.19548,
                    -0.19297
                ],
                [
                    -0.36709,
                    -0.09404,
                    -2.02655
                ]
            ],
            [
                [
                    -2.40139,
                    -0.15877,
                    0.30336
                ],
                [
                    -0.06445,
                    -1.96021,
                    0.46262
                ],
                [
                    0.29919,
                    0.49776,
                    -2.05414
                ]
            ],
            [
                [
                    -2.07879,
                    0.34203,
                    0.17571
                ],
                [
                    0.39834,
                    -2.19548,
                    0.19297
                ],
                [
                    0.36709,
                    0.09404,
                    -2.02655
                ]
            ],
            [
                [
                    -2.07879,
                    -0.34203,
                    0.17571
                ],
                [
                    -0.39834,
                    -2.19548,
                    -0.19297
                ],
                [
                    0.36709,
                    -0.09404,
                    -2.02655
                ]
            ],
            [
                [
                    -2.40138,
                    0.15877,
                    -0.30335
                ],
                [
                    0.06445,
                    -1.96021,
                    0.46262
                ],
                [
                    -0.29919,
                    0.49776,
                    -2.05414
                ]
            ],
            [
                [
                    -2.07879,
                    -0.34203,
                    -0.17569
                ],
                [
                    -0.39834,
                    -2.19548,
                    0.19297
                ],
                [
                    -0.36709,
                    0.09404,
                    -2.02655
                ]
            ],
            [
                [
                    -2.40139,
                    0.15877,
                    0.30336
                ],
                [
                    0.06446,
                    -1.96021,
                    -0.46262
                ],
                [
                    0.29919,
                    -0.49776,
                    -2.05414
                ]
            ]
        ]
    },
    "band_gap": 3.6294999999999997,
    "is_direct": false,
    "formula": "CaGaBiB2O7"
}