{
    "mp_id": "mp-18043",
    "nelements": 5,
    "nsites": 32,
    "elements": [
        "B",
        "O",
        "Sc",
        "Sr",
        "Y"
    ],
    "structure": {
        "@module": "pymatgen.core.structure",
        "@class": "Structure",
        "charge": null,
        "lattice": {
            "matrix": [
                [
                    6.08834051,
                    3.51510482,
                    3.08227232
                ],
                [
                    -6.08834039,
                    3.51510502,
                    3.08227232
                ],
                [
                    -1.2e-07,
                    -7.03020984,
                    3.08227232
                ]
            ],
            "a": 7.676213566331547,
            "b": 7.676213562738646,
            "c": 7.676213457758391,
            "alpha": 104.96054580908097,
            "beta": 104.96054585743212,
            "gamma": 104.96054727019475,
            "volume": 395.7851347351382
        },
        "sites": [
            {
                "species": [
                    {
                        "element": "Sr",
                        "occu": 1
                    }
                ],
                "abc": [
                    0.73612842,
                    0.35158458,
                    0.8387586
                ],
                "xyz": [
                    2.341233780482076,
                    -2.0732236837110483,
                    5.937910087946111
                ],
                "label": "Sr",
                "properties": {}
            },
            {
                "species": [
                    {
                        "element": "Sr",
                        "occu": 1
                    }
                ],
                "abc": [
                    0.35158458,
                    0.8387586,
                    0.73612842
                ],
                "xyz": [
                    -2.966081309069929,
                    -0.9909560445638057,
                    5.937910087946112
                ],
                "label": "Sr",
                "properties": {}
            },
            {
                "species": [
                    {
                        "element": "Sr",
                        "occu": 1
                    }
                ],
                "abc": [
                    0.8387586,
                    0.73612842,
                    0.35158458
                ],
                "xyz": [
                    0.6248475285878521,
                    3.064179728274853,
                    5.937910087946112
                ],
                "label": "Sr",
                "properties": {}
            },
            {
                "species": [
                    {
                        "element": "Sr",
                        "occu": 1
                    }
                ],
                "abc": [
                    0.26387158,
                    0.64841542,
                    0.1612414
                ],
                "xyz": [
                    -2.3412337804820758,
                    2.0732236837110483,
                    3.308906872053888
                ],
                "label": "Sr",
                "properties": {}
            },
            {
                "species": [
                    {
                        "element": "Sr",
                        "occu": 1
                    }
                ],
                "abc": [
                    0.64841542,
                    0.1612414,
                    0.26387158
                ],
                "xyz": [
                    2.9660813090699283,
                    0.9909560445638048,
                    3.3089068720538877
                ],
                "label": "Sr",
                "properties": {}
            },
            {
                "species": [
                    {
                        "element": "Sr",
                        "occu": 1
                    }
                ],
                "abc": [
                    0.1612414,
                    0.26387158,
                    0.64841542
                ],
                "xyz": [
                    -0.6248475285878526,
                    -3.0641797282748535,
                    3.308906872053888
                ],
                "label": "Sr",
                "properties": {}
            },
            {
                "species": [
                    {
                        "element": "Y",
                        "occu": 1
                    }
                ],
                "abc": [
                    0.0,
                    0.0,
                    0.0
                ],
                "xyz": [
                    0.0,
                    0.0,
                    0.0
                ],
                "label": "Y",
                "properties": {}
            },
            {
                "species": [
                    {
                        "element": "Sc",
                        "occu": 1
                    }
                ],
                "abc": [
                    0.5,
                    0.5,
                    0.5
                ],
                "xyz": [
                    7.944095695682488e-17,
                    -4.440892098500626e-16,
                    4.62340848
                ],
                "label": "Sc",
                "properties": {}
            },
            {
                "species": [
                    {
                        "element": "B",
                        "occu": 1
                    }
                ],
                "abc": [
                    0.04136368,
                    0.37691288,
                    0.29556017
                ],
                "xyz": [
                    -2.0429377776957667,
                    -0.6075639879144776,
                    2.2002391938783137
                ],
                "label": "B",
                "properties": {}
            },
            {
                "species": [
                    {
                        "element": "B",
                        "occu": 1
                    }
                ],
                "abc": [
                    0.37691288,
                    0.29556017,
                    0.04136368
                ],
                "xyz": [
                    0.495303030394861,
                    2.0730179683325236,
                    2.2002391938783132
                ],
                "label": "B",
                "properties": {}
            },
            {
                "species": [
                    {
                        "element": "B",
                        "occu": 1
                    }
                ],
                "abc": [
                    0.29556017,
                    0.04136368,
                    0.37691288
                ],
                "xyz": [
                    1.5476347473009058,
                    -1.4654539804180464,
                    2.2002391938783137
                ],
                "label": "B",
                "properties": {}
            },
            {
                "species": [
                    {
                        "element": "B",
                        "occu": 1
                    }
                ],
                "abc": [
                    0.62308712,
                    0.70443983,
                    0.95863632
                ],
                "xyz": [
                    -0.49530303039486084,
                    -2.0730179683325245,
                    7.046577766121686
                ],
                "label": "B",
                "properties": {}
            },
            {
                "species": [
                    {
                        "element": "B",
                        "occu": 1
                    }
                ],
                "abc": [
                    0.70443983,
                    0.95863632,
                    0.62308712
                ],
                "xyz": [
                    -1.5476347473009058,
                    1.4654539804180455,
                    7.046577766121686
                ],
                "label": "B",
                "properties": {}
            },
            {
                "species": [
                    {
                        "element": "B",
                        "occu": 1
                    }
                ],
                "abc": [
                    0.95863632,
                    0.62308712,
                    0.70443983
                ],
                "xyz": [
                    2.042937777695767,
                    0.6075639879144772,
                    7.046577766121686
                ],
                "label": "B",
                "properties": {}
            },
            {
                "species": [
                    {
                        "element": "O",
                        "occu": 1
                    }
                ],
                "abc": [
                    0.49777443,
                    0.43363954,
                    0.21936004
                ],
                "xyz": [
                    0.39047507460493386,
                    1.73187071037945,
                    3.5469988775984036
                ],
                "label": "O",
                "properties": {}
            },
            {
                "species": [
                    {
                        "element": "O",
                        "occu": 1
                    }
                ],
                "abc": [
                    0.43363954,
                    0.21936004,
                    0.49777443
                ],
                "xyz": [
                    1.3046065269028184,
                    -1.2040966808984077,
                    3.546998877598403
                ],
                "label": "O",
                "properties": {}
            },
            {
                "species": [
                    {
                        "element": "O",
                        "occu": 1
                    }
                ],
                "abc": [
                    0.01661001,
                    0.81743959,
                    0.72618524
                ],
                "xyz": [
                    -4.875723162569764,
                    -2.1734626873437715,
                    4.809068660031628
                ],
                "label": "O",
                "properties": {}
            },
            {
                "species": [
                    {
                        "element": "O",
                        "occu": 1
                    }
                ],
                "abc": [
                    0.72618524,
                    0.01661001,
                    0.81743959
                ],
                "xyz": [
                    4.320135521602018,
                    -3.135768682353459,
                    4.809068660031628
                ],
                "label": "O",
                "properties": {}
            },
            {
                "species": [
                    {
                        "element": "O",
                        "occu": 1
                    }
                ],
                "abc": [
                    0.81743959,
                    0.72618524,
                    0.01661001
                ],
                "xyz": [
                    0.5555876409677465,
                    5.309231369697231,
                    4.809068660031628
                ],
                "label": "O",
                "properties": {}
            },
            {
                "species": [
                    {
                        "element": "O",
                        "occu": 1
                    }
                ],
                "abc": [
                    0.18256041,
                    0.27381476,
                    0.98338999
                ],
                "xyz": [
                    -0.555587640967746,
                    -5.309231369697231,
                    4.437748299968371
                ],
                "label": "O",
                "properties": {}
            },
            {
                "species": [
                    {
                        "element": "O",
                        "occu": 1
                    }
                ],
                "abc": [
                    0.98338999,
                    0.18256041,
                    0.27381476
                ],
                "xyz": [
                    4.875723162569764,
                    2.173462687343772,
                    4.437748299968372
                ],
                "label": "O",
                "properties": {}
            },
            {
                "species": [
                    {
                        "element": "O",
                        "occu": 1
                    }
                ],
                "abc": [
                    0.27381476,
                    0.98338999,
                    0.18256041
                ],
                "xyz": [
                    -4.320135521602018,
                    3.1357686823534587,
                    4.437748299968371
                ],
                "label": "O",
                "properties": {}
            },
            {
                "species": [
                    {
                        "element": "O",
                        "occu": 1
                    }
                ],
                "abc": [
                    0.07541003,
                    0.55048098,
                    0.80855834
                ],
                "xyz": [
                    -2.8923937409784672,
                    -3.4842621819402018,
                    4.421363525946992
                ],
                "label": "O",
                "properties": {}
            },
            {
                "species": [
                    {
                        "element": "O",
                        "occu": 1
                    }
                ],
                "abc": [
                    0.80855834,
                    0.07541003,
                    0.55048098
                ],
                "xyz": [
                    4.463656498602525,
                    -0.7627553091322938,
                    4.421363525946992
                ],
                "label": "O",
                "properties": {}
            },
            {
                "species": [
                    {
                        "element": "O",
                        "occu": 1
                    }
                ],
                "abc": [
                    0.55048098,
                    0.80855834,
                    0.07541003
                ],
                "xyz": [
                    -1.5712627576240568,
                    4.247017491072495,
                    4.421363525946992
                ],
                "label": "O",
                "properties": {}
            },
            {
                "species": [
                    {
                        "element": "O",
                        "occu": 1
                    }
                ],
                "abc": [
                    0.92458997,
                    0.44951902,
                    0.19144166
                ],
                "xyz": [
                    2.8923937409784677,
                    3.4842621819402018,
                    4.825453434053008
                ],
                "label": "O",
                "properties": {}
            },
            {
                "species": [
                    {
                        "element": "O",
                        "occu": 1
                    }
                ],
                "abc": [
                    0.19144166,
                    0.92458997,
                    0.44951902
                ],
                "xyz": [
                    -4.463656498602524,
                    0.7627553091322938,
                    4.825453434053008
                ],
                "label": "O",
                "properties": {}
            },
            {
                "species": [
                    {
                        "element": "O",
                        "occu": 1
                    }
                ],
                "abc": [
                    0.44951902,
                    0.19144166,
                    0.92458997
                ],
                "xyz": [
                    1.5712627576240563,
                    -4.247017491072496,
                    4.825453434053008
                ],
                "label": "O",
                "properties": {}
            },
            {
                "species": [
                    {
                        "element": "O",
                        "occu": 1
                    }
                ],
                "abc": [
                    0.78063996,
                    0.50222557,
                    0.56636046
                ],
                "xyz": [
                    1.6950816015077523,
                    0.5277740294810425,
                    5.699818082401597
                ],
                "label": "O",
                "properties": {}
            },
            {
                "species": [
                    {
                        "element": "O",
                        "occu": 1
                    }
                ],
                "abc": [
                    0.56636046,
                    0.78063996,
                    0.50222557
                ],
                "xyz": [
                    -1.3046065269028186,
                    1.2040966808984073,
                    5.699818082401596
                ],
                "label": "O",
                "properties": {}
            },
            {
                "species": [
                    {
                        "element": "O",
                        "occu": 1
                    }
                ],
                "abc": [
                    0.50222557,
                    0.56636046,
                    0.78063996
                ],
                "xyz": [
                    -0.39047507460493325,
                    -1.7318707103794506,
                    5.699818082401596
                ],
                "label": "O",
                "properties": {}
            },
            {
                "species": [
                    {
                        "element": "O",
                        "occu": 1
                    }
                ],
                "abc": [
                    0.21936004,
                    0.49777443,
                    0.43363954
                ],
                "xyz": [
                    -1.695081601507752,
                    -0.527774029481042,
                    3.546998877598403
                ],
                "label": "O",
                "properties": {}
            }
        ]
    },
    "spacegroup": {
        "source": "spglib",
        "symbol": "R-3",
        "number": 148,
        "point_group": "-3",
        "crystal_system": "trigonal",
        "hall": "-R 3"
    },
    "dielectric": {
        "epsilon_ionic": [
            [
                8.59933723,
                -1.16e-06,
                -4.2e-07
            ],
            [
                -1.16e-06,
                8.59935218,
                1.28e-06
            ],
            [
                -4.2e-07,
                1.28e-06,
                8.38350684
            ]
        ],
        "epsilon_ionic_avg": 8.527398750000005,
        "epsilon_ionic_eig": [
            8.599337140529247,
            8.599352269479176,
            8.383506839991593
        ],
        "epsilon_electronic": [
            [
                3.29813998,
                4.7e-07,
                0.0
            ],
            [
                -4.7e-07,
                3.29814048,
                0.0
            ],
            [
                0.0,
                -0.0,
                3.41861898
            ]
        ],
        "epsilon_electronic_avg": 3.3382998133333337,
        "epsilon_electronic_eig": [
            3.29814023,
            3.29814023,
            3.41861898
        ]
    },
    "phonon": {
        "lowest_freq": -0.039035736988289466,
        "frequency": [
            -0.039035736988289466,
            -0.028165738103592797,
            -0.02816573602106141,
            2.605283474314609,
            2.8191545546888435,
            2.949272023329555,
            2.94927204818994,
            2.9917873563974307,
            2.991787413580669,
            3.097715654873395,
            3.338570726418044,
            3.42993847469094,
            3.4299385316949076,
            3.9165082090327235,
            3.9165083775196274,
            4.105149775345035,
            4.50955541646464,
            4.518860276678174,
            4.518860401072437,
            4.530169661557001,
            4.763023165781442,
            4.777503343406298,
            4.777503384331461,
            4.994881922281925,
            4.994881946746982,
            5.474631672401328,
            5.474631761685921,
            5.520749412383886,
            5.520749478787949,
            5.527123776342106,
            5.898017264714983,
            5.898017368309174,
            6.146652746077084,
            6.14665292500383,
            6.1513667517090225,
            6.779359520594784,
            6.779359556645406,
            6.782870590943418,
            6.907549376656855,
            6.9075494120384535,
            6.997692333089901,
            7.488320668749555,
            7.708112024126931,
            7.8271899957301425,
            8.161829556003722,
            8.161829705725134,
            8.371760548970403,
            8.371760578163801,
            8.828379763413242,
            8.828379846463633,
            9.841066642314725,
            9.841066952748717,
            10.12849140072489,
            10.128491774739324,
            10.362735190444118,
            10.367881351975264,
            10.652630338620773,
            11.326485831872292,
            11.32648641447165,
            12.551803675082073,
            16.624801101070272,
            16.624801395088983,
            16.660630276056423,
            16.664738646287592,
            16.66473893960168,
            16.89614886455852,
            17.291084753644945,
            17.47845965882184,
            17.478460008395167,
            17.650137466321684,
            17.80625473289154,
            17.806255007401965,
            21.328827774050623,
            21.328828518864565,
            21.477017087253593,
            21.800560323250373,
            21.80056105194762,
            21.943526128100785,
            27.19819929420522,
            27.35105286095929,
            27.351053307743054,
            27.358083663696725,
            27.358084110365674,
            27.687106906372126,
            35.24060736520966,
            35.37580471009436,
            35.37580484826797,
            35.97363361479921,
            35.97363398846196,
            38.05852059030852,
            38.24738908193209,
            38.24739010432922,
            38.348820219799634,
            38.348821526281185,
            38.739826618185724,
            38.88597471937219
        ]
    },
    "born_effective_charge": {
        "avg_abs_trace": 2.2055433333333334,
        "tensors": [
            [
                [
                    2.60205,
                    -0.21822,
                    -0.0512
                ],
                [
                    -0.19359,
                    2.57803,
                    0.05676
                ],
                [
                    -0.10896,
                    -0.06113,
                    2.39668
                ]
            ],
            [
                [
                    2.76234,
                    0.10107,
                    0.07477
                ],
                [
                    0.1257,
                    2.41773,
                    0.01595
                ],
                [
                    0.00154,
                    0.12493,
                    2.39668
                ]
            ],
            [
                [
                    2.4057,
                    0.08021,
                    -0.02356
                ],
                [
                    0.10485,
                    2.77435,
                    -0.07271
                ],
                [
                    0.10742,
                    -0.0638,
                    2.39668
                ]
            ],
            [
                [
                    2.60203,
                    -0.21823,
                    -0.05117
                ],
                [
                    -0.19362,
                    2.57799,
                    0.05679
                ],
                [
                    -0.10895,
                    -0.06113,
                    2.39668
                ]
            ],
            [
                [
                    2.76232,
                    0.10108,
                    0.07474
                ],
                [
                    0.12569,
                    2.41773,
                    0.01593
                ],
                [
                    0.00154,
                    0.12492,
                    2.39668
                ]
            ],
            [
                [
                    2.4057,
                    0.08021,
                    -0.02358
                ],
                [
                    0.10485,
                    2.77437,
                    -0.07271
                ],
                [
                    0.10742,
                    -0.06379,
                    2.39668
                ]
            ],
            [
                [
                    3.49315,
                    0.23646,
                    -0.0
                ],
                [
                    -0.23646,
                    3.49313,
                    1e-05
                ],
                [
                    0.0,
                    -0.0,
                    4.31005
                ]
            ],
            [
                [
                    3.94313,
                    0.04223,
                    0.0
                ],
                [
                    -0.04223,
                    3.94314,
                    -0.0
                ],
                [
                    0.0,
                    -0.0,
                    4.04174
                ]
            ],
            [
                [
                    2.30411,
                    -0.87061,
                    0.41623
                ],
                [
                    -0.72474,
                    1.14111,
                    0.33122
                ],
                [
                    0.20421,
                    0.39568,
                    2.75167
                ]
            ],
            [
                [
                    2.12267,
                    0.82948,
                    0.07875
                ],
                [
                    0.97536,
                    1.32256,
                    -0.52607
                ],
                [
                    0.24057,
                    -0.37469,
                    2.75167
                ]
            ],
            [
                [
                    0.74107,
                    -0.17769,
                    -0.49496
                ],
                [
                    -0.03182,
                    2.70417,
                    0.19485
                ],
                [
                    -0.44478,
                    -0.02099,
                    2.75167
                ]
            ],
            [
                [
                    2.12267,
                    0.82948,
                    0.07873
                ],
                [
                    0.97535,
                    1.32254,
                    -0.52607
                ],
                [
                    0.24056,
                    -0.37469,
                    2.75167
                ]
            ],
            [
                [
                    0.74106,
                    -0.17767,
                    -0.49496
                ],
                [
                    -0.03181,
                    2.70414,
                    0.19484
                ],
                [
                    -0.44477,
                    -0.02099,
                    2.75167
                ]
            ],
            [
                [
                    2.30409,
                    -0.87061,
                    0.41622
                ],
                [
                    -0.72473,
                    1.14112,
                    0.33122
                ],
                [
                    0.20421,
                    0.39567,
                    2.75167
                ]
            ],
            [
                [
                    -1.55129,
                    -0.19714,
                    0.18704
                ],
                [
                    -0.18226,
                    -1.8422,
                    0.61936
                ],
                [
                    0.19389,
                    0.7477,
                    -2.70452
                ]
            ],
            [
                [
                    -1.60519,
                    0.21338,
                    0.44292
                ],
                [
                    0.22826,
                    -1.78828,
                    -0.47162
                ],
                [
                    0.55059,
                    -0.54176,
                    -2.70452
                ]
            ],
            [
                [
                    -2.0049,
                    -0.0043,
                    0.38671
                ],
                [
                    0.08699,
                    -1.72931,
                    -0.09812
                ],
                [
                    0.51306,
                    -0.06291,
                    -2.13897
                ]
            ],
            [
                [
                    -1.76239,
                    0.05304,
                    -0.10838
                ],
                [
                    0.14431,
                    -1.97187,
                    0.38398
                ],
                [
                    -0.20205,
                    0.47578,
                    -2.13897
                ]
            ],
            [
                [
                    -1.83402,
                    -0.18566,
                    -0.27832
                ],
                [
                    -0.09442,
                    -1.90023,
                    -0.28588
                ],
                [
                    -0.31101,
                    -0.41287,
                    -2.13897
                ]
            ],
            [
                [
                    -1.83393,
                    -0.18567,
                    -0.27832
                ],
                [
                    -0.09432,
                    -1.90021,
                    -0.2858
                ],
                [
                    -0.31102,
                    -0.41288,
                    -2.13898
                ]
            ],
            [
                [
                    -2.00492,
                    -0.00436,
                    0.38668
                ],
                [
                    0.08695,
                    -1.72924,
                    -0.09811
                ],
                [
                    0.51308,
                    -0.06291,
                    -2.13898
                ]
            ],
            [
                [
                    -1.76241,
                    0.05305,
                    -0.10836
                ],
                [
                    0.14439,
                    -1.97171,
                    0.38392
                ],
                [
                    -0.20206,
                    0.47579,
                    -2.13898
                ]
            ],
            [
                [
                    -2.36902,
                    0.45647,
                    -0.37884
                ],
                [
                    0.27267,
                    -1.60736,
                    0.08365
                ],
                [
                    -0.31629,
                    0.12686,
                    -1.69682
                ]
            ],
            [
                [
                    -1.48203,
                    0.23946,
                    0.117
                ],
                [
                    0.05564,
                    -2.49435,
                    -0.36991
                ],
                [
                    0.04828,
                    -0.33735,
                    -1.69682
                ]
            ],
            [
                [
                    -2.11349,
                    -0.42021,
                    0.26186
                ],
                [
                    -0.604,
                    -1.86289,
                    0.28626
                ],
                [
                    0.26801,
                    0.21049,
                    -1.69682
                ]
            ],
            [
                [
                    -2.36899,
                    0.45641,
                    -0.37883
                ],
                [
                    0.27261,
                    -1.60729,
                    0.0836
                ],
                [
                    -0.31628,
                    0.12686,
                    -1.6968
                ]
            ],
            [
                [
                    -1.48205,
                    0.23944,
                    0.11702
                ],
                [
                    0.05566,
                    -2.49423,
                    -0.36988
                ],
                [
                    0.04828,
                    -0.33733,
                    -1.6968
                ]
            ],
            [
                [
                    -2.11341,
                    -0.42016,
                    0.26179
                ],
                [
                    -0.60398,
                    -1.86288,
                    0.28628
                ],
                [
                    0.268,
                    0.21048,
                    -1.6968
                ]
            ],
            [
                [
                    -1.93377,
                    -0.03858,
                    -0.62998
                ],
                [
                    -0.02365,
                    -1.45975,
                    -0.14769
                ],
                [
                    -0.74448,
                    -0.20593,
                    -2.70454
                ]
            ],
            [
                [
                    -1.60521,
                    0.21335,
                    0.44289
                ],
                [
                    0.22828,
                    -1.78833,
                    -0.4718
                ],
                [
                    0.55058,
                    -0.54177,
                    -2.70454
                ]
            ],
            [
                [
                    -1.55131,
                    -0.19716,
                    0.18708
                ],
                [
                    -0.18222,
                    -1.84222,
                    0.61948
                ],
                [
                    0.1939,
                    0.74771,
                    -2.70454
                ]
            ],
            [
                [
                    -1.93376,
                    -0.03856,
                    -0.62994
                ],
                [
                    -0.0237,
                    -1.45974,
                    -0.14773
                ],
                [
                    -0.74447,
                    -0.20594,
                    -2.70452
                ]
            ]
        ]
    },
    "band_gap": 4.6383,
    "is_direct": false,
    "formula": "Sr6YSc(BO3)6"
}