{
    "mp_id": "mp-13743",
    "nelements": 3,
    "nsites": 14,
    "elements": [
        "Ga",
        "K",
        "O"
    ],
    "structure": {
        "@module": "pymatgen.core.structure",
        "@class": "Structure",
        "charge": null,
        "lattice": {
            "matrix": [
                [
                    3.57014482,
                    -5.56564489,
                    0.00044005
                ],
                [
                    3.57014482,
                    5.56564489,
                    0.00044005
                ],
                [
                    -1.35742926,
                    0.0,
                    6.36219764
                ]
            ],
            "a": 6.6122868412524225,
            "b": 6.6122868412524225,
            "c": 6.505395684070702,
            "alpha": 96.46504078356395,
            "beta": 96.46504078356395,
            "gamma": 114.64281221705217,
            "volume": 252.8423972828635
        },
        "sites": [
            {
                "species": [
                    {
                        "element": "K",
                        "occu": 1
                    }
                ],
                "abc": [
                    0.62624397,
                    0.62624397,
                    0.35110749
                ],
                "xyz": [
                    3.9949597507723134,
                    0.0,
                    2.234366401582321
                ],
                "label": "K",
                "properties": {}
            },
            {
                "species": [
                    {
                        "element": "K",
                        "occu": 1
                    }
                ],
                "abc": [
                    0.74168632,
                    0.25831368,
                    0.0
                ],
                "xyz": [
                    3.57014482,
                    -2.690280463781809,
                    0.00044005
                ],
                "label": "K",
                "properties": {}
            },
            {
                "species": [
                    {
                        "element": "K",
                        "occu": 1
                    }
                ],
                "abc": [
                    0.80751441,
                    0.19248559,
                    0.5
                ],
                "xyz": [
                    2.89143019,
                    -3.4230320092357296,
                    3.18153887
                ],
                "label": "K",
                "properties": {}
            },
            {
                "species": [
                    {
                        "element": "K",
                        "occu": 1
                    }
                ],
                "abc": [
                    0.25831368,
                    0.74168632,
                    0.0
                ],
                "xyz": [
                    3.57014482,
                    2.690280463781809,
                    0.00044005
                ],
                "label": "K",
                "properties": {}
            },
            {
                "species": [
                    {
                        "element": "K",
                        "occu": 1
                    }
                ],
                "abc": [
                    0.37375603,
                    0.37375603,
                    0.64889251
                ],
                "xyz": [
                    1.7879006292276864,
                    0.0,
                    4.12871133841768
                ],
                "label": "K",
                "properties": {}
            },
            {
                "species": [
                    {
                        "element": "K",
                        "occu": 1
                    }
                ],
                "abc": [
                    0.19248559,
                    0.80751441,
                    0.5
                ],
                "xyz": [
                    2.89143019,
                    3.4230320092357296,
                    3.18153887
                ],
                "label": "K",
                "properties": {}
            },
            {
                "species": [
                    {
                        "element": "Ga",
                        "occu": 1
                    }
                ],
                "abc": [
                    0.82951555,
                    0.82951555,
                    0.85237074
                ],
                "xyz": [
                    4.765948305040049,
                    0.0,
                    5.423681167068608
                ],
                "label": "Ga",
                "properties": {}
            },
            {
                "species": [
                    {
                        "element": "Ga",
                        "occu": 1
                    }
                ],
                "abc": [
                    0.17048445,
                    0.17048445,
                    0.14762926
                ],
                "xyz": [
                    1.0169120749599505,
                    0.0,
                    0.9393965729313914
                ],
                "label": "Ga",
                "properties": {}
            },
            {
                "species": [
                    {
                        "element": "O",
                        "occu": 1
                    }
                ],
                "abc": [
                    0.84420643,
                    0.57139532,
                    0.73370172
                ],
                "xyz": [
                    4.057955072105107,
                    -1.5183697603067272,
                    4.668578286998028
                ],
                "label": "O",
                "properties": {}
            },
            {
                "species": [
                    {
                        "element": "O",
                        "occu": 1
                    }
                ],
                "abc": [
                    0.90168791,
                    0.90168791,
                    0.15590063
                ],
                "xyz": [
                    6.226688765471819,
                    0.0,
                    0.9926641957901042
                ],
                "label": "O",
                "properties": {}
            },
            {
                "species": [
                    {
                        "element": "O",
                        "occu": 1
                    }
                ],
                "abc": [
                    0.09831209,
                    0.09831209,
                    0.84409937
                ],
                "xyz": [
                    -0.4438283854718186,
                    0.0,
                    5.370413544209896
                ],
                "label": "O",
                "properties": {}
            },
            {
                "species": [
                    {
                        "element": "O",
                        "occu": 1
                    }
                ],
                "abc": [
                    0.15579357,
                    0.42860468,
                    0.26629828
                ],
                "xyz": [
                    1.7249053078948924,
                    1.5183697603067277,
                    1.6944994530019717
                ],
                "label": "O",
                "properties": {}
            },
            {
                "species": [
                    {
                        "element": "O",
                        "occu": 1
                    }
                ],
                "abc": [
                    0.42860468,
                    0.15579357,
                    0.26629828
                ],
                "xyz": [
                    1.7249053078948924,
                    -1.5183697603067277,
                    1.6944994530019717
                ],
                "label": "O",
                "properties": {}
            },
            {
                "species": [
                    {
                        "element": "O",
                        "occu": 1
                    }
                ],
                "abc": [
                    0.57139532,
                    0.84420643,
                    0.73370172
                ],
                "xyz": [
                    4.057955072105107,
                    1.5183697603067272,
                    4.668578286998028
                ],
                "label": "O",
                "properties": {}
            }
        ]
    },
    "spacegroup": {
        "source": "spglib",
        "symbol": "C2/m",
        "number": 12,
        "point_group": "2/m",
        "crystal_system": "monoclinic",
        "hall": "-C 2y"
    },
    "dielectric": {
        "epsilon_ionic": [
            [
                4.62647125,
                0.0,
                0.21327156
            ],
            [
                0.0,
                6.89692659,
                0.0
            ],
            [
                0.21327156,
                0.0,
                5.22740312
            ]
        ],
        "epsilon_ionic_avg": 5.5836003199999995,
        "epsilon_ionic_eig": [
            4.558474790174886,
            5.295399579825114,
            6.89692659
        ],
        "epsilon_electronic": [
            [
                2.93960539,
                0.0,
                0.12415834
            ],
            [
                0.0,
                2.96079653,
                0.0
            ],
            [
                0.12415765,
                0.0,
                2.94834503
            ]
        ],
        "epsilon_electronic_avg": 2.949582316666667,
        "epsilon_electronic_eig": [
            2.8197403394960494,
            3.0682100805039507,
            2.96079653
        ]
    },
    "phonon": {
        "lowest_freq": -0.11596692032279891,
        "frequency": [
            -0.11596692032279891,
            -0.08317196001731564,
            -0.058958723506257256,
            2.0086768303277087,
            2.4631854593123057,
            2.4870107185189654,
            2.8671346513641764,
            2.9822932020711272,
            3.040439261895305,
            3.082703085007418,
            3.356722571188722,
            3.610947645443405,
            3.6126710753496205,
            3.731522203959223,
            3.79690185130961,
            4.245267576479877,
            4.434106641341222,
            4.531756425226721,
            4.860936968265586,
            5.167253626393344,
            5.325877714304014,
            5.509297775253596,
            5.81232633076224,
            6.173106363842026,
            6.3252071351022385,
            6.481929928445673,
            6.797449489032613,
            7.241550451208768,
            7.404803507424522,
            7.907108533961264,
            7.983448583523619,
            8.244964925014676,
            9.474324292363402,
            10.089533611035202,
            12.846757382741107,
            13.918612820391393,
            14.727654402836448,
            17.02771847669072,
            17.324726315989658,
            17.528734094037237,
            17.926849802624602,
            18.676641225875404
        ]
    },
    "born_effective_charge": {
        "avg_abs_trace": 1.5805083333333336,
        "tensors": [
            [
                [
                    1.27614,
                    -0.0,
                    -0.03133
                ],
                [
                    -3e-05,
                    0.97657,
                    -3e-05
                ],
                [
                    -0.02733,
                    0.0,
                    1.15084
                ]
            ],
            [
                [
                    1.14793,
                    1e-05,
                    -0.0432
                ],
                [
                    0.0,
                    1.15347,
                    -0.0
                ],
                [
                    -0.00714,
                    -4e-05,
                    0.99515
                ]
            ],
            [
                [
                    1.07445,
                    1e-05,
                    0.00191
                ],
                [
                    0.0,
                    1.21165,
                    -0.0
                ],
                [
                    -0.02986,
                    4e-05,
                    1.23632
                ]
            ],
            [
                [
                    1.14793,
                    -1e-05,
                    -0.0432
                ],
                [
                    0.0,
                    1.15351,
                    -0.0
                ],
                [
                    -0.00714,
                    4e-05,
                    0.99515
                ]
            ],
            [
                [
                    1.27609,
                    -0.0,
                    -0.03135
                ],
                [
                    3e-05,
                    0.97657,
                    3e-05
                ],
                [
                    -0.02738,
                    0.0,
                    1.1509
                ]
            ],
            [
                [
                    1.07445,
                    -1e-05,
                    0.00191
                ],
                [
                    0.0,
                    1.21169,
                    -0.0
                ],
                [
                    -0.02986,
                    -4e-05,
                    1.23632
                ]
            ],
            [
                [
                    2.06577,
                    -0.0,
                    0.64652
                ],
                [
                    4e-05,
                    2.20098,
                    -0.0
                ],
                [
                    0.67809,
                    0.0,
                    2.10598
                ]
            ],
            [
                [
                    2.06578,
                    -0.0,
                    0.64649
                ],
                [
                    -4e-05,
                    2.20098,
                    0.0
                ],
                [
                    0.67808,
                    0.0,
                    2.10604
                ]
            ],
            [
                [
                    -1.73144,
                    -0.27531,
                    -0.28184
                ],
                [
                    -0.24094,
                    -2.08155,
                    -0.21254
                ],
                [
                    -0.26437,
                    -0.23903,
                    -1.69047
                ]
            ],
            [
                [
                    -2.10147,
                    -0.0,
                    -0.01015
                ],
                [
                    0.00013,
                    -1.37957,
                    -0.00011
                ],
                [
                    -0.0849,
                    0.0,
                    -2.10729
                ]
            ],
            [
                [
                    -2.10142,
                    -0.0,
                    -0.01007
                ],
                [
                    -0.00013,
                    -1.37957,
                    0.00011
                ],
                [
                    -0.0851,
                    0.0,
                    -2.10743
                ]
            ],
            [
                [
                    -1.73139,
                    -0.2753,
                    -0.28193
                ],
                [
                    -0.24086,
                    -2.0816,
                    -0.21255
                ],
                [
                    -0.26437,
                    -0.23908,
                    -1.69052
                ]
            ],
            [
                [
                    -1.73139,
                    0.2753,
                    -0.28193
                ],
                [
                    0.24094,
                    -2.08155,
                    0.21254
                ],
                [
                    -0.26437,
                    0.23908,
                    -1.69052
                ]
            ],
            [
                [
                    -1.73144,
                    0.27531,
                    -0.28184
                ],
                [
                    0.24086,
                    -2.0816,
                    0.21255
                ],
                [
                    -0.26437,
                    0.23903,
                    -1.69047
                ]
            ]
        ]
    },
    "band_gap": 2.6617,
    "is_direct": true,
    "formula": "K3GaO3"
}