{
    "mp_id": "mp-10392",
    "nelements": 4,
    "nsites": 22,
    "elements": [
        "Cd",
        "O",
        "Pt",
        "Sr"
    ],
    "structure": {
        "@module": "pymatgen.core.structure",
        "@class": "Structure",
        "charge": null,
        "lattice": {
            "matrix": [
                [
                    4.78512127,
                    2.76269103,
                    3.88263976
                ],
                [
                    -4.78512127,
                    2.76269103,
                    3.88263976
                ],
                [
                    0.0,
                    -5.52538206,
                    3.88263976
                ]
            ],
            "a": 6.753128075327887,
            "b": 6.753128075327887,
            "c": 6.753128046683456,
            "alpha": 90.23874843856018,
            "beta": 90.23874843856018,
            "gamma": 90.23874892360942,
            "volume": 307.9665970622985
        },
        "sites": [
            {
                "species": [
                    {
                        "element": "Sr",
                        "occu": 1
                    }
                ],
                "abc": [
                    0.11296596,
                    0.38703404,
                    0.75
                ],
                "xyz": [
                    -1.3114489990360618,
                    -2.76269103,
                    4.8532997
                ],
                "label": "Sr",
                "properties": {}
            },
            {
                "species": [
                    {
                        "element": "Sr",
                        "occu": 1
                    }
                ],
                "abc": [
                    0.75,
                    0.11296596,
                    0.38703404
                ],
                "xyz": [
                    3.048285134518031,
                    0.24559737566201623,
                    4.8532997
                ],
                "label": "Sr",
                "properties": {}
            },
            {
                "species": [
                    {
                        "element": "Sr",
                        "occu": 1
                    }
                ],
                "abc": [
                    0.38703404,
                    0.75,
                    0.11296596
                ],
                "xyz": [
                    -1.736836135481969,
                    2.517093654337984,
                    4.8532997
                ],
                "label": "Sr",
                "properties": {}
            },
            {
                "species": [
                    {
                        "element": "Sr",
                        "occu": 1
                    }
                ],
                "abc": [
                    0.88703404,
                    0.61296596,
                    0.25
                ],
                "xyz": [
                    1.3114489990360614,
                    2.7626910300000005,
                    6.79461958
                ],
                "label": "Sr",
                "properties": {}
            },
            {
                "species": [
                    {
                        "element": "Sr",
                        "occu": 1
                    }
                ],
                "abc": [
                    0.61296596,
                    0.25,
                    0.88703404
                ],
                "xyz": [
                    1.7368361354819692,
                    -2.517093654337984,
                    6.79461958
                ],
                "label": "Sr",
                "properties": {}
            },
            {
                "species": [
                    {
                        "element": "Sr",
                        "occu": 1
                    }
                ],
                "abc": [
                    0.25,
                    0.88703404,
                    0.61296596
                ],
                "xyz": [
                    -3.0482851345180304,
                    -0.24559737566201667,
                    6.794619580000001
                ],
                "label": "Sr",
                "properties": {}
            },
            {
                "species": [
                    {
                        "element": "Cd",
                        "occu": 1
                    }
                ],
                "abc": [
                    0.75,
                    0.75,
                    0.75
                ],
                "xyz": [
                    0.0,
                    0.0,
                    8.73593946
                ],
                "label": "Cd",
                "properties": {}
            },
            {
                "species": [
                    {
                        "element": "Cd",
                        "occu": 1
                    }
                ],
                "abc": [
                    0.25,
                    0.25,
                    0.25
                ],
                "xyz": [
                    0.0,
                    0.0,
                    2.91197982
                ],
                "label": "Cd",
                "properties": {}
            },
            {
                "species": [
                    {
                        "element": "Pt",
                        "occu": 1
                    }
                ],
                "abc": [
                    0.5,
                    0.5,
                    0.5
                ],
                "xyz": [
                    0.0,
                    0.0,
                    5.82395964
                ],
                "label": "Pt",
                "properties": {}
            },
            {
                "species": [
                    {
                        "element": "Pt",
                        "occu": 1
                    }
                ],
                "abc": [
                    0.0,
                    0.0,
                    0.0
                ],
                "xyz": [
                    0.0,
                    0.0,
                    0.0
                ],
                "label": "Pt",
                "properties": {}
            },
            {
                "species": [
                    {
                        "element": "O",
                        "occu": 1
                    }
                ],
                "abc": [
                    0.08294013,
                    0.94781538,
                    0.28368795
                ],
                "xyz": [
                    -4.138532954671568,
                    1.2801746920318982,
                    5.10351044006797
                ],
                "label": "O",
                "properties": {}
            },
            {
                "species": [
                    {
                        "element": "O",
                        "occu": 1
                    }
                ],
                "abc": [
                    0.94781538,
                    0.28368795,
                    0.08294013
                ],
                "xyz": [
                    3.1779302912834364,
                    2.9439872968500618,
                    5.103510440067969
                ],
                "label": "O",
                "properties": {}
            },
            {
                "species": [
                    {
                        "element": "O",
                        "occu": 1
                    }
                ],
                "abc": [
                    0.28368795,
                    0.08294013,
                    0.94781538
                ],
                "xyz": [
                    0.9606026633881315,
                    -4.22416198888196,
                    5.10351044006797
                ],
                "label": "O",
                "properties": {}
            },
            {
                "species": [
                    {
                        "element": "O",
                        "occu": 1
                    }
                ],
                "abc": [
                    0.21631205,
                    0.55218462,
                    0.41705987
                ],
                "xyz": [
                    -1.607190978716564,
                    -0.18129626685006173,
                    4.60308895993203
                ],
                "label": "O",
                "properties": {}
            },
            {
                "species": [
                    {
                        "element": "O",
                        "occu": 1
                    }
                ],
                "abc": [
                    0.55218462,
                    0.41705987,
                    0.21631205
                ],
                "xyz": [
                    0.6465883153284324,
                    1.4825163379681017,
                    4.603088959932031
                ],
                "label": "O",
                "properties": {}
            },
            {
                "species": [
                    {
                        "element": "O",
                        "occu": 1
                    }
                ],
                "abc": [
                    0.41705987,
                    0.21631205,
                    0.55218462
                ],
                "xyz": [
                    0.9606026633881315,
                    -1.3012200711180397,
                    4.60308895993203
                ],
                "label": "O",
                "properties": {}
            },
            {
                "species": [
                    {
                        "element": "O",
                        "occu": 1
                    }
                ],
                "abc": [
                    0.91705987,
                    0.05218462,
                    0.71631205
                ],
                "xyz": [
                    4.138532954671568,
                    -1.2801746920318982,
                    6.54440883993203
                ],
                "label": "O",
                "properties": {}
            },
            {
                "species": [
                    {
                        "element": "O",
                        "occu": 1
                    }
                ],
                "abc": [
                    0.05218462,
                    0.71631205,
                    0.91705987
                ],
                "xyz": [
                    -3.1779302912834364,
                    -2.943987296850062,
                    6.54440883993203
                ],
                "label": "O",
                "properties": {}
            },
            {
                "species": [
                    {
                        "element": "O",
                        "occu": 1
                    }
                ],
                "abc": [
                    0.71631205,
                    0.91705987,
                    0.05218462
                ],
                "xyz": [
                    -0.9606026633881317,
                    4.22416198888196,
                    6.54440883993203
                ],
                "label": "O",
                "properties": {}
            },
            {
                "species": [
                    {
                        "element": "O",
                        "occu": 1
                    }
                ],
                "abc": [
                    0.78368795,
                    0.44781538,
                    0.58294013
                ],
                "xyz": [
                    1.607190978716564,
                    0.18129626685006173,
                    7.04483032006797
                ],
                "label": "O",
                "properties": {}
            },
            {
                "species": [
                    {
                        "element": "O",
                        "occu": 1
                    }
                ],
                "abc": [
                    0.58294013,
                    0.78368795,
                    0.44781538
                ],
                "xyz": [
                    -0.9606026633881313,
                    1.3012200711180397,
                    7.04483032006797
                ],
                "label": "O",
                "properties": {}
            },
            {
                "species": [
                    {
                        "element": "O",
                        "occu": 1
                    }
                ],
                "abc": [
                    0.44781538,
                    0.58294013,
                    0.78368795
                ],
                "xyz": [
                    -0.6465883153284326,
                    -1.4825163379681014,
                    7.04483032006797
                ],
                "label": "O",
                "properties": {}
            }
        ]
    },
    "spacegroup": {
        "source": "spglib",
        "symbol": "R-3c",
        "number": 167,
        "point_group": "-3m",
        "crystal_system": "trigonal",
        "hall": "-R 3 2\"c"
    },
    "dielectric": {
        "epsilon_ionic": [
            [
                8.66898564,
                -1e-08,
                -2e-08
            ],
            [
                -1e-08,
                8.66899486,
                -1.12e-06
            ],
            [
                -2e-08,
                -1.12e-06,
                8.26668482
            ]
        ],
        "epsilon_ionic_avg": 8.534888439999998,
        "epsilon_ionic_eig": [
            8.266684819996877,
            8.668985639989156,
            8.66899486001396
        ],
        "epsilon_electronic": [
            [
                4.49742905,
                0.0,
                -0.0
            ],
            [
                0.0,
                4.49742938,
                -0.0
            ],
            [
                -0.0,
                -0.0,
                5.34089199
            ]
        ],
        "epsilon_electronic_avg": 4.778583473333334,
        "epsilon_electronic_eig": [
            4.49742905,
            4.49742938,
            5.34089199
        ]
    },
    "phonon": {
        "lowest_freq": -0.025857953432816102,
        "frequency": [
            -0.025857953432816102,
            -0.025857952487651836,
            -0.025346655865247446,
            2.56873754149704,
            2.5687376223694938,
            3.3502844838055386,
            3.350284487452992,
            3.3609357555162043,
            3.4045249626000316,
            3.4045250774589935,
            3.4624391383737234,
            3.5309038256131347,
            3.5309038290740067,
            3.5335563526065297,
            3.7710924254656475,
            3.771092542121561,
            3.914333587545077,
            4.4677488819076645,
            4.616062516554144,
            4.616062654212664,
            4.623166366458179,
            4.6308244306104225,
            4.630824544080558,
            5.174976777341785,
            5.394191215513153,
            5.394191238167164,
            5.558510145902907,
            5.5585102338401855,
            5.832246605966468,
            6.002996416282728,
            6.371419252902724,
            6.7192797860021125,
            7.025961172605633,
            7.0259612769615165,
            7.329588506814007,
            7.329588640191278,
            8.153059553831035,
            9.192968789797435,
            9.49218348976743,
            9.49218354126246,
            9.855492441967154,
            9.855492466765524,
            9.856912505015176,
            9.856912517412573,
            10.593698229344039,
            10.593698240879204,
            10.727945651354448,
            10.727945662745265,
            10.759501627335345,
            11.390561491390153,
            11.39056150211834,
            11.690945254454126,
            12.717840398730623,
            13.817637132039915,
            14.902861935824554,
            15.183697420595433,
            15.183697484980312,
            15.897416713458131,
            16.217547453724748,
            16.217547453724748,
            17.084660452521458,
            17.08466066710002,
            17.371490090387706,
            17.37149023107807,
            17.500813233376505,
            17.784044173346825
        ]
    },
    "born_effective_charge": {
        "avg_abs_trace": 2.207435,
        "tensors": [
            [
                [
                    2.63124,
                    0.0,
                    -0.0
                ],
                [
                    4e-05,
                    2.95055,
                    0.43162
                ],
                [
                    -4e-05,
                    0.31452,
                    2.38921
                ]
            ],
            [
                [
                    2.87073,
                    0.13825,
                    -0.37384
                ],
                [
                    0.1381,
                    2.711,
                    -0.21572
                ],
                [
                    -0.27237,
                    -0.15729,
                    2.38921
                ]
            ],
            [
                [
                    2.87073,
                    -0.13825,
                    0.37384
                ],
                [
                    -0.13837,
                    2.71121,
                    -0.21591
                ],
                [
                    0.2724,
                    -0.15723,
                    2.38921
                ]
            ],
            [
                [
                    2.63134,
                    0.0,
                    -0.0
                ],
                [
                    -4e-05,
                    2.95055,
                    0.43162
                ],
                [
                    4e-05,
                    0.31452,
                    2.38921
                ]
            ],
            [
                [
                    2.87074,
                    -0.13823,
                    0.37375
                ],
                [
                    -0.1381,
                    2.711,
                    -0.21572
                ],
                [
                    0.27237,
                    -0.15729,
                    2.38921
                ]
            ],
            [
                [
                    2.87074,
                    0.13823,
                    -0.37375
                ],
                [
                    0.13837,
                    2.71121,
                    -0.21591
                ],
                [
                    -0.2724,
                    -0.15723,
                    2.38921
                ]
            ],
            [
                [
                    1.41348,
                    0.0,
                    -0.0
                ],
                [
                    -5e-05,
                    1.41345,
                    1e-05
                ],
                [
                    -0.0,
                    -0.0,
                    3.50478
                ]
            ],
            [
                [
                    1.41341,
                    0.0,
                    -0.0
                ],
                [
                    5e-05,
                    1.41345,
                    1e-05
                ],
                [
                    -0.0,
                    -0.0,
                    3.50478
                ]
            ],
            [
                [
                    1.76579,
                    -0.04337,
                    -0.0
                ],
                [
                    0.04337,
                    1.76578,
                    0.0
                ],
                [
                    -0.0,
                    -0.0,
                    2.64629
                ]
            ],
            [
                [
                    1.76579,
                    0.04337,
                    0.0
                ],
                [
                    -0.04337,
                    1.76578,
                    0.0
                ],
                [
                    -0.0,
                    -0.0,
                    2.64629
                ]
            ],
            [
                [
                    -1.62076,
                    0.43117,
                    -0.22344
                ],
                [
                    0.35828,
                    -2.22974,
                    0.47718
                ],
                [
                    -0.2495,
                    0.47789,
                    -2.21974
                ]
            ],
            [
                [
                    -2.41938,
                    0.10284,
                    0.52486
                ],
                [
                    0.02984,
                    -1.43122,
                    -0.04511
                ],
                [
                    0.53862,
                    -0.02287,
                    -2.21974
                ]
            ],
            [
                [
                    -1.73591,
                    -0.4245,
                    -0.30147
                ],
                [
                    -0.49768,
                    -2.11478,
                    -0.43215
                ],
                [
                    -0.28911,
                    -0.45502,
                    -2.21974
                ]
            ],
            [
                [
                    -2.41938,
                    -0.10284,
                    -0.52486
                ],
                [
                    -0.02988,
                    -1.43128,
                    -0.04506
                ],
                [
                    -0.53872,
                    -0.02309,
                    -2.21983
                ]
            ],
            [
                [
                    -1.62076,
                    -0.43117,
                    0.22344
                ],
                [
                    -0.35795,
                    -2.23004,
                    0.47704
                ],
                [
                    0.24936,
                    0.47809,
                    -2.21983
                ]
            ],
            [
                [
                    -1.73591,
                    0.4245,
                    0.30147
                ],
                [
                    0.49764,
                    -2.11492,
                    -0.43189
                ],
                [
                    0.28935,
                    -0.455,
                    -2.21983
                ]
            ],
            [
                [
                    -1.62078,
                    0.43131,
                    -0.22336
                ],
                [
                    0.35795,
                    -2.23004,
                    0.47704
                ],
                [
                    -0.24936,
                    0.47809,
                    -2.21983
                ]
            ],
            [
                [
                    -2.41944,
                    0.10312,
                    0.5249
                ],
                [
                    0.02988,
                    -1.43128,
                    -0.04506
                ],
                [
                    0.53872,
                    -0.02309,
                    -2.21983
                ]
            ],
            [
                [
                    -1.73571,
                    -0.42457,
                    -0.30152
                ],
                [
                    -0.49764,
                    -2.11492,
                    -0.43189
                ],
                [
                    -0.28935,
                    -0.455,
                    -2.21983
                ]
            ],
            [
                [
                    -2.41944,
                    -0.10312,
                    -0.5249
                ],
                [
                    -0.02984,
                    -1.43122,
                    -0.04511
                ],
                [
                    -0.53862,
                    -0.02287,
                    -2.21974
                ]
            ],
            [
                [
                    -1.73571,
                    0.42457,
                    0.30152
                ],
                [
                    0.49768,
                    -2.11478,
                    -0.43215
                ],
                [
                    0.28911,
                    -0.45502,
                    -2.21974
                ]
            ],
            [
                [
                    -1.62078,
                    -0.43131,
                    0.22336
                ],
                [
                    -0.35828,
                    -2.22974,
                    0.47718
                ],
                [
                    0.2495,
                    0.47789,
                    -2.21974
                ]
            ]
        ]
    },
    "band_gap": 2.352,
    "is_direct": false,
    "formula": "Sr3CdPtO6"
}