{
    "mp_id": "mp-18741",
    "nelements": 4,
    "nsites": 14,
    "elements": [
        "Cr",
        "Li",
        "O",
        "Rb"
    ],
    "structure": {
        "@module": "pymatgen.core.structure",
        "@class": "Structure",
        "charge": null,
        "lattice": {
            "matrix": [
                [
                    5.36374122,
                    0.0,
                    0.0
                ],
                [
                    -2.68187061,
                    4.64513634,
                    0.0
                ],
                [
                    0.0,
                    0.0,
                    9.17971216
                ]
            ],
            "a": 5.36374122,
            "b": 5.36374137948227,
            "c": 9.17971216,
            "alpha": 90.0,
            "beta": 90.0,
            "gamma": 119.99999901642704,
            "volume": 228.71536737847217
        },
        "sites": [
            {
                "species": [
                    {
                        "element": "Rb",
                        "occu": 1
                    }
                ],
                "abc": [
                    0.0,
                    0.0,
                    0.49408312
                ],
                "xyz": [
                    0.0,
                    0.0,
                    4.535540824714738
                ],
                "label": "Rb",
                "properties": {}
            },
            {
                "species": [
                    {
                        "element": "Rb",
                        "occu": 1
                    }
                ],
                "abc": [
                    0.0,
                    0.0,
                    0.99408312
                ],
                "xyz": [
                    0.0,
                    0.0,
                    9.125396904714739
                ],
                "label": "Rb",
                "properties": {}
            },
            {
                "species": [
                    {
                        "element": "Li",
                        "occu": 1
                    }
                ],
                "abc": [
                    0.666667,
                    0.333333,
                    0.68127157
                ],
                "xyz": [
                    2.68187329187061,
                    1.5483772316212199,
                    6.253876915391291
                ],
                "label": "Li",
                "properties": {}
            },
            {
                "species": [
                    {
                        "element": "Li",
                        "occu": 1
                    }
                ],
                "abc": [
                    0.333333,
                    0.666667,
                    0.18127157
                ],
                "xyz": [
                    -2.681870610032888e-06,
                    3.0967591083787798,
                    1.664020835391291
                ],
                "label": "Li",
                "properties": {}
            },
            {
                "species": [
                    {
                        "element": "Cr",
                        "occu": 1
                    }
                ],
                "abc": [
                    0.333333,
                    0.666667,
                    0.79157394
                ],
                "xyz": [
                    -2.681870610032888e-06,
                    3.0967591083787798,
                    7.26642092255711
                ],
                "label": "Cr",
                "properties": {}
            },
            {
                "species": [
                    {
                        "element": "Cr",
                        "occu": 1
                    }
                ],
                "abc": [
                    0.666667,
                    0.333333,
                    0.29157394
                ],
                "xyz": [
                    2.68187329187061,
                    1.5483772316212199,
                    2.67656484255711
                ],
                "label": "Cr",
                "properties": {}
            },
            {
                "species": [
                    {
                        "element": "O",
                        "occu": 1
                    }
                ],
                "abc": [
                    0.62091157,
                    0.96286803,
                    0.73423733
                ],
                "xyz": [
                    0.7481215110183168,
                    4.472653276777209,
                    6.740087346526932
                ],
                "label": "O",
                "properties": {}
            },
            {
                "species": [
                    {
                        "element": "O",
                        "occu": 1
                    }
                ],
                "abc": [
                    0.03713197,
                    0.65804354,
                    0.73423733
                ],
                "xyz": [
                    -1.5656213519575557,
                    3.0567019609562434,
                    6.740087346526932
                ],
                "label": "O",
                "properties": {}
            },
            {
                "species": [
                    {
                        "element": "O",
                        "occu": 1
                    }
                ],
                "abc": [
                    0.34195646,
                    0.37908843,
                    0.73423733
                ],
                "xyz": [
                    0.8174998409392391,
                    1.760917442266546,
                    6.740087346526932
                ],
                "label": "O",
                "properties": {}
            },
            {
                "species": [
                    {
                        "element": "O",
                        "occu": 1
                    }
                ],
                "abc": [
                    0.96286803,
                    0.62091157,
                    0.23423733
                ],
                "xyz": [
                    3.4993704509392387,
                    2.8842188977334535,
                    2.1502312665269327
                ],
                "label": "O",
                "properties": {}
            },
            {
                "species": [
                    {
                        "element": "O",
                        "occu": 1
                    }
                ],
                "abc": [
                    0.666667,
                    0.333333,
                    0.47176038
                ],
                "xyz": [
                    2.68187329187061,
                    1.5483772316212199,
                    4.33062449689222
                ],
                "label": "O",
                "properties": {}
            },
            {
                "species": [
                    {
                        "element": "O",
                        "occu": 1
                    }
                ],
                "abc": [
                    0.333333,
                    0.666667,
                    0.97176038
                ],
                "xyz": [
                    -2.681870610032888e-06,
                    3.0967591083787798,
                    8.92048057689222
                ],
                "label": "O",
                "properties": {}
            },
            {
                "species": [
                    {
                        "element": "O",
                        "occu": 1
                    }
                ],
                "abc": [
                    0.37908843,
                    0.34195646,
                    0.23423733
                ],
                "xyz": [
                    1.1162492580424437,
                    1.5884343790437563,
                    2.1502312665269327
                ],
                "label": "O",
                "properties": {}
            },
            {
                "species": [
                    {
                        "element": "O",
                        "occu": 1
                    }
                ],
                "abc": [
                    0.65804354,
                    0.03713197,
                    0.23423733
                ],
                "xyz": [
                    3.4299921210183166,
                    0.17248306322278978,
                    2.1502312665269327
                ],
                "label": "O",
                "properties": {}
            }
        ]
    },
    "spacegroup": {
        "source": "spglib",
        "symbol": "P31c",
        "number": 159,
        "point_group": "3m",
        "crystal_system": "trigonal",
        "hall": "P 3 -2c"
    },
    "dielectric": {
        "epsilon_ionic": [
            [
                3.42419821,
                7.656e-05,
                2.523e-05
            ],
            [
                7.656e-05,
                3.42432793,
                2.618e-05
            ],
            [
                2.523e-05,
                2.618e-05,
                3.32823236
            ]
        ],
        "epsilon_ionic_avg": 3.3922528333333335,
        "epsilon_ionic_eig": [
            3.424162730786245,
            3.424363422968318,
            3.3282323462454375
        ],
        "epsilon_electronic": [
            [
                2.81686806,
                -3e-07,
                -0.0
            ],
            [
                -3e-07,
                2.8168681,
                0.0
            ],
            [
                -0.0,
                0.0,
                2.8655427
            ]
        ],
        "epsilon_electronic_avg": 2.8330929533333333,
        "epsilon_electronic_eig": [
            2.8168677793340726,
            2.8168683806659276,
            2.8655427
        ]
    },
    "phonon": {
        "lowest_freq": -0.09195428700768316,
        "frequency": [
            -0.09195428700768316,
            -0.09195427704076836,
            -0.012015587246803511,
            1.578561249240938,
            1.5785613266532417,
            1.9097411816552197,
            1.9097413224282924,
            2.177049877203878,
            2.1770499614004306,
            2.6198164770171735,
            2.619816742890888,
            2.7185515802875377,
            2.75946532096437,
            3.719483964165893,
            3.7194841350068844,
            4.240414574638515,
            6.177620692927708,
            6.213988252742483,
            9.743970729754002,
            9.743971143610139,
            10.078304966234862,
            10.078305354236816,
            10.501686670694735,
            10.93382677531482,
            10.933826954136112,
            11.11984758849823,
            11.283914904748551,
            11.283915013044357,
            12.09759460440386,
            13.370780222169998,
            13.370780496350102,
            13.418821253882214,
            13.41882153618734,
            13.429439912094104,
            26.433722525211245,
            26.501940172404556,
            27.43590674701442,
            27.435907548737934,
            27.511827629914773,
            27.511828429425872,
            27.593361593292116,
            29.52837991639913
        ]
    },
    "born_effective_charge": {
        "avg_abs_trace": 1.512695238095238,
        "tensors": [
            [
                [
                    1.23583,
                    -0.01584,
                    -1e-05
                ],
                [
                    0.01586,
                    1.23581,
                    -0.00096
                ],
                [
                    0.0,
                    -0.0,
                    1.34917
                ]
            ],
            [
                [
                    1.23583,
                    0.01584,
                    -1e-05
                ],
                [
                    -0.01576,
                    1.23582,
                    0.001
                ],
                [
                    0.0,
                    -0.0,
                    1.34917
                ]
            ],
            [
                [
                    1.25848,
                    0.32676,
                    -4e-05
                ],
                [
                    -0.3267,
                    1.25854,
                    -0.0008
                ],
                [
                    0.0,
                    -0.0,
                    1.35556
                ]
            ],
            [
                [
                    1.25848,
                    -0.32676,
                    -4e-05
                ],
                [
                    0.32664,
                    1.25868,
                    0.0008
                ],
                [
                    0.0,
                    -0.0,
                    1.35556
                ]
            ],
            [
                [
                    2.7612,
                    -0.00193,
                    0.00045
                ],
                [
                    0.00082,
                    2.76106,
                    0.00173
                ],
                [
                    0.0,
                    -0.0,
                    2.66791
                ]
            ],
            [
                [
                    2.7612,
                    0.00193,
                    0.00045
                ],
                [
                    0.00043,
                    2.76038,
                    -0.0019
                ],
                [
                    0.0,
                    -0.0,
                    2.66791
                ]
            ],
            [
                [
                    -1.01452,
                    -0.78166,
                    0.29371
                ],
                [
                    -0.66634,
                    -2.06324,
                    0.58626
                ],
                [
                    0.24619,
                    0.65069,
                    -0.85803
                ]
            ],
            [
                [
                    -2.42864,
                    -0.14986,
                    -0.65462
                ],
                [
                    -0.03403,
                    -0.64975,
                    -0.03836
                ],
                [
                    -0.68661,
                    -0.11214,
                    -0.85803
                ]
            ],
            [
                [
                    -1.17427,
                    0.75898,
                    0.36093
                ],
                [
                    0.87398,
                    -1.90444,
                    -0.54738
                ],
                [
                    0.44042,
                    -0.53855,
                    -0.85803
                ]
            ],
            [
                [
                    -1.17427,
                    -0.75898,
                    0.36093
                ],
                [
                    -0.87448,
                    -1.90448,
                    0.54758
                ],
                [
                    0.44042,
                    0.53855,
                    -0.85803
                ]
            ],
            [
                [
                    -0.63809,
                    -0.06849,
                    -0.00042
                ],
                [
                    0.06878,
                    -0.63808,
                    0.00192
                ],
                [
                    0.0,
                    -0.0,
                    -2.79856
                ]
            ],
            [
                [
                    -0.63809,
                    0.06849,
                    -0.00042
                ],
                [
                    -0.06866,
                    -0.63813,
                    -0.00207
                ],
                [
                    0.0,
                    -0.0,
                    -2.79856
                ]
            ],
            [
                [
                    -2.42864,
                    0.14986,
                    -0.65462
                ],
                [
                    0.03375,
                    -0.64943,
                    0.03826
                ],
                [
                    -0.68661,
                    0.11214,
                    -0.85803
                ]
            ],
            [
                [
                    -1.01452,
                    0.78166,
                    0.29371
                ],
                [
                    0.66573,
                    -2.06272,
                    -0.58608
                ],
                [
                    0.24619,
                    -0.65069,
                    -0.85803
                ]
            ]
        ]
    },
    "band_gap": 3.0140000000000002,
    "is_direct": false,
    "formula": "RbLiCrO4"
}