{
    "mp_id": "mp-14726",
    "nelements": 3,
    "nsites": 18,
    "elements": [
        "Na",
        "O",
        "Ti"
    ],
    "structure": {
        "@module": "pymatgen.core.structure",
        "@class": "Structure",
        "charge": null,
        "lattice": {
            "matrix": [
                [
                    5.72298236,
                    -0.0005431,
                    0.00150417
                ],
                [
                    2.10152011,
                    5.33892708,
                    0.00026011
                ],
                [
                    2.7643728,
                    0.21264182,
                    8.19480123
                ]
            ],
            "a": 5.722982583439876,
            "b": 5.737641432326436,
            "c": 8.651112108867984,
            "alpha": 81.95492986302035,
            "beta": 71.3500037550395,
            "gamma": 68.51973814536245,
            "volume": 250.37626337558436
        },
        "sites": [
            {
                "species": [
                    {
                        "element": "Na",
                        "occu": 1
                    }
                ],
                "abc": [
                    0.74255339,
                    0.25694258,
                    0.49024128
                ],
                "xyz": [
                    6.144799611182668,
                    1.475640215639287,
                    4.018613604207895
                ],
                "label": "Na",
                "properties": {}
            },
            {
                "species": [
                    {
                        "element": "Na",
                        "occu": 1
                    }
                ],
                "abc": [
                    0.25744661,
                    0.74305742,
                    0.50975872
                ],
                "xyz": [
                    4.444075658817332,
                    4.075385584360713,
                    4.1779519057921055
                ],
                "label": "Na",
                "properties": {}
            },
            {
                "species": [
                    {
                        "element": "Na",
                        "occu": 1
                    }
                ],
                "abc": [
                    0.44143058,
                    0.74590055,
                    0.09885436
                ],
                "xyz": [
                    4.367094732335037,
                    4.003089475459231,
                    0.8109498337464418
                ],
                "label": "Na",
                "properties": {}
            },
            {
                "species": [
                    {
                        "element": "Na",
                        "occu": 1
                    }
                ],
                "abc": [
                    0.55856942,
                    0.25409945,
                    0.90114564
                ],
                "xyz": [
                    6.221780537664962,
                    1.547936324540769,
                    7.385615676253557
                ],
                "label": "Na",
                "properties": {}
            },
            {
                "species": [
                    {
                        "element": "Na",
                        "occu": 1
                    }
                ],
                "abc": [
                    0.97911557,
                    0.23462166,
                    0.06570824
                ],
                "xyz": [
                    6.2781653436348,
                    1.2660684962050825,
                    0.5399997496800447
                ],
                "label": "Na",
                "properties": {}
            },
            {
                "species": [
                    {
                        "element": "Na",
                        "occu": 1
                    }
                ],
                "abc": [
                    0.02088443,
                    0.76537834,
                    0.93429176
                ],
                "xyz": [
                    4.3107099263652,
                    4.284957303794918,
                    7.656565760319955
                ],
                "label": "Na",
                "properties": {}
            },
            {
                "species": [
                    {
                        "element": "Na",
                        "occu": 1
                    }
                ],
                "abc": [
                    0.88781808,
                    0.77427131,
                    0.31185831
                ],
                "xyz": [
                    7.57020656890808,
                    4.199610008847352,
                    2.557153687405559
                ],
                "label": "Na",
                "properties": {}
            },
            {
                "species": [
                    {
                        "element": "Na",
                        "occu": 1
                    }
                ],
                "abc": [
                    0.11218192,
                    0.22572869,
                    0.68814169
                ],
                "xyz": [
                    3.018668701091919,
                    1.351415791152649,
                    5.639411822594441
                ],
                "label": "Na",
                "properties": {}
            },
            {
                "species": [
                    {
                        "element": "Ti",
                        "occu": 1
                    }
                ],
                "abc": [
                    0.65846179,
                    0.77989022,
                    0.74004201
                ],
                "xyz": [
                    7.453072193127676,
                    4.320783284269867,
                    6.06569046951546
                ],
                "label": "Ti",
                "properties": {}
            },
            {
                "species": [
                    {
                        "element": "Ti",
                        "occu": 1
                    }
                ],
                "abc": [
                    0.34153821,
                    0.22010978,
                    0.25995799
                ],
                "xyz": [
                    3.1358030768723233,
                    1.2302425157301333,
                    2.1308750404845394
                ],
                "label": "Ti",
                "properties": {}
            },
            {
                "species": [
                    {
                        "element": "O",
                        "occu": 1
                    }
                ],
                "abc": [
                    0.86940339,
                    0.97815661,
                    0.69523848
                ],
                "xyz": [
                    8.953094394963971,
                    5.3696714163501245,
                    5.6989033098602935
                ],
                "label": "O",
                "properties": {}
            },
            {
                "species": [
                    {
                        "element": "O",
                        "occu": 1
                    }
                ],
                "abc": [
                    0.13059661,
                    0.02184339,
                    0.30476152
                ],
                "xyz": [
                    1.6357808750360285,
                    0.1813543836498766,
                    2.497662200139706
                ],
                "label": "O",
                "properties": {}
            },
            {
                "species": [
                    {
                        "element": "O",
                        "occu": 1
                    }
                ],
                "abc": [
                    0.67170338,
                    0.02433436,
                    0.1326817
                ],
                "xyz": [
                    4.2620674243341155,
                    0.1577682496414848,
                    1.0883168440419653
                ],
                "label": "O",
                "properties": {}
            },
            {
                "species": [
                    {
                        "element": "O",
                        "occu": 1
                    }
                ],
                "abc": [
                    0.32829662,
                    0.97566564,
                    0.8673183
                ],
                "xyz": [
                    6.326807845665883,
                    5.393257550358516,
                    7.108248665958034
                ],
                "label": "O",
                "properties": {}
            },
            {
                "species": [
                    {
                        "element": "O",
                        "occu": 1
                    }
                ],
                "abc": [
                    0.20387056,
                    0.47985733,
                    0.121467
                ],
                "xyz": [
                    2.510957518426828,
                    2.587641535522301,
                    0.9958293926747515
                ],
                "label": "O",
                "properties": {}
            },
            {
                "species": [
                    {
                        "element": "O",
                        "occu": 1
                    }
                ],
                "abc": [
                    0.79612944,
                    0.52014267,
                    0.878533
                ],
                "xyz": [
                    8.077917751573171,
                    2.9633842644776998,
                    7.200736117325248
                ],
                "label": "O",
                "properties": {}
            },
            {
                "species": [
                    {
                        "element": "O",
                        "occu": 1
                    }
                ],
                "abc": [
                    0.35013269,
                    0.34176311,
                    0.44456832
                ],
                "xyz": [
                    3.9509778286001866,
                    1.918991982539222,
                    3.6437645706458928
                ],
                "label": "O",
                "properties": {}
            },
            {
                "species": [
                    {
                        "element": "O",
                        "occu": 1
                    }
                ],
                "abc": [
                    0.64986731,
                    0.65823689,
                    0.55543168
                ],
                "xyz": [
                    6.637897441399813,
                    3.632033817460778,
                    4.552800939354106
                ],
                "label": "O",
                "properties": {}
            }
        ]
    },
    "spacegroup": {
        "source": "spglib",
        "symbol": "P-1",
        "number": 2,
        "point_group": "-1",
        "crystal_system": "triclinic",
        "hall": "-P 1"
    },
    "dielectric": {
        "epsilon_ionic": [
            [
                3.43751031,
                -0.1714441,
                0.15358436
            ],
            [
                -0.1714441,
                3.85193754,
                -0.06899624
            ],
            [
                0.15358436,
                -0.06899624,
                3.29848335
            ]
        ],
        "epsilon_ionic_avg": 3.5293104,
        "epsilon_ionic_eig": [
            3.936037501503831,
            3.454670749019733,
            3.1972229494764353
        ],
        "epsilon_electronic": [
            [
                2.77187328,
                0.01469554,
                0.01234252
            ],
            [
                0.01469674,
                2.80664382,
                0.01653639
            ],
            [
                0.01234333,
                0.01653385,
                2.85720557
            ]
        ],
        "epsilon_electronic_avg": 2.8119075566666667,
        "epsilon_electronic_eig": [
            2.864945578224747,
            2.766071692014151,
            2.804705399761102
        ]
    },
    "phonon": {
        "lowest_freq": -0.1533992518626063,
        "frequency": [
            -0.1533992518626063,
            -0.12002971556285837,
            -0.046561477653787986,
            3.177859313119704,
            3.5402906029226204,
            3.7739355415772016,
            4.111524264418312,
            4.369019300442327,
            4.449065370304359,
            4.723098688559666,
            4.768896348984185,
            4.862406067133057,
            4.963358847145261,
            5.2388871438045195,
            5.281474239077935,
            5.616610613675106,
            5.768040360980009,
            5.951774502937886,
            6.113621051740545,
            6.209997093957231,
            6.222334744598573,
            6.516074971816789,
            6.5178740780830395,
            6.866891538403555,
            7.125003952520231,
            7.246309316008852,
            7.329790887359293,
            7.530200070983571,
            7.608551865426026,
            7.698682910782319,
            7.728358792146884,
            7.940297736047002,
            7.9670940210021834,
            8.195281605991019,
            8.336877682938578,
            8.472796248422014,
            9.29620010146883,
            9.917330419340171,
            9.917959332336366,
            10.140888991429055,
            10.165080644709251,
            10.367850612981155,
            10.575389411439659,
            10.827799207625313,
            11.269212986757614,
            11.315104688452317,
            20.145895732995765,
            20.336720116941173,
            20.5192888771956,
            21.268464563113692,
            21.338556721351445,
            21.502592104703716,
            21.92065438382614,
            23.16212060092227
        ]
    },
    "born_effective_charge": {
        "avg_abs_trace": 1.5255044444444446,
        "tensors": [
            [
                [
                    1.05585,
                    0.0495,
                    -0.10123
                ],
                [
                    0.05944,
                    0.99698,
                    -0.07768
                ],
                [
                    0.05996,
                    0.04228,
                    0.96835
                ]
            ],
            [
                [
                    1.05585,
                    0.04954,
                    -0.10122
                ],
                [
                    0.05945,
                    0.99697,
                    -0.07771
                ],
                [
                    0.05994,
                    0.04227,
                    0.96836
                ]
            ],
            [
                [
                    0.7563,
                    0.15054,
                    -0.00019
                ],
                [
                    0.19091,
                    1.03765,
                    0.06135
                ],
                [
                    -0.03534,
                    0.01639,
                    1.0574
                ]
            ],
            [
                [
                    0.75629,
                    0.1505,
                    -0.00023
                ],
                [
                    0.19092,
                    1.03765,
                    0.06136
                ],
                [
                    -0.03532,
                    0.01638,
                    1.05738
                ]
            ],
            [
                [
                    1.22075,
                    -0.08463,
                    0.08757
                ],
                [
                    -0.13886,
                    0.93661,
                    0.0241
                ],
                [
                    0.05107,
                    -0.02638,
                    1.06638
                ]
            ],
            [
                [
                    1.22074,
                    -0.08463,
                    0.08758
                ],
                [
                    -0.13889,
                    0.93662,
                    0.02411
                ],
                [
                    0.05107,
                    -0.02637,
                    1.06638
                ]
            ],
            [
                [
                    1.04841,
                    -0.09424,
                    0.01618
                ],
                [
                    -0.1104,
                    1.11924,
                    0.01555
                ],
                [
                    -0.07963,
                    -0.0362,
                    0.94961
                ]
            ],
            [
                [
                    1.04843,
                    -0.09422,
                    0.01617
                ],
                [
                    -0.11037,
                    1.11926,
                    0.01555
                ],
                [
                    -0.07963,
                    -0.03618,
                    0.94958
                ]
            ],
            [
                [
                    2.61041,
                    0.05498,
                    0.11564
                ],
                [
                    0.07817,
                    2.73191,
                    0.13165
                ],
                [
                    0.09718,
                    0.11426,
                    3.03839
                ]
            ],
            [
                [
                    2.61053,
                    0.05513,
                    0.11539
                ],
                [
                    0.07832,
                    2.73205,
                    0.13174
                ],
                [
                    0.09722,
                    0.11421,
                    3.0383
                ]
            ],
            [
                [
                    -2.18149,
                    -0.772,
                    0.32422
                ],
                [
                    -0.79558,
                    -1.64711,
                    0.19385
                ],
                [
                    0.33121,
                    0.23395,
                    -1.20498
                ]
            ],
            [
                [
                    -2.18201,
                    -0.77262,
                    0.32448
                ],
                [
                    -0.79614,
                    -1.64723,
                    0.19408
                ],
                [
                    0.33135,
                    0.23413,
                    -1.20523
                ]
            ],
            [
                [
                    -1.7618,
                    0.61491,
                    0.48597
                ],
                [
                    0.54182,
                    -1.66385,
                    -0.60603
                ],
                [
                    0.539,
                    -0.50151,
                    -1.74372
                ]
            ],
            [
                [
                    -1.76152,
                    0.61487,
                    0.48585
                ],
                [
                    0.54212,
                    -1.66399,
                    -0.60608
                ],
                [
                    0.53891,
                    -0.50142,
                    -1.74367
                ]
            ],
            [
                [
                    -1.27392,
                    0.34259,
                    -0.31295
                ],
                [
                    0.43123,
                    -2.06172,
                    0.75277
                ],
                [
                    -0.28832,
                    0.71163,
                    -1.79706
                ]
            ],
            [
                [
                    -1.27407,
                    0.34284,
                    -0.31326
                ],
                [
                    0.43128,
                    -2.06193,
                    0.75307
                ],
                [
                    -0.28812,
                    0.71154,
                    -1.79692
                ]
            ],
            [
                [
                    -1.47439,
                    -0.26142,
                    -0.61493
                ],
                [
                    -0.25679,
                    -1.4496,
                    -0.49593
                ],
                [
                    -0.67523,
                    -0.55433,
                    -2.33426
                ]
            ],
            [
                [
                    -1.47436,
                    -0.26163,
                    -0.61503
                ],
                [
                    -0.25663,
                    -1.44949,
                    -0.49575
                ],
                [
                    -0.67532,
                    -0.55463,
                    -2.33429
                ]
            ]
        ]
    },
    "band_gap": 3.3717,
    "is_direct": false,
    "formula": "Na4TiO4"
}