{
    "mp_id": "mp-17071",
    "nelements": 3,
    "nsites": 28,
    "elements": [
        "Cr",
        "O",
        "Rb"
    ],
    "structure": {
        "@module": "pymatgen.core.structure",
        "@class": "Structure",
        "charge": null,
        "lattice": {
            "matrix": [
                [
                    7.96953034,
                    0.0,
                    0.0
                ],
                [
                    0.0,
                    6.01941544,
                    0.0
                ],
                [
                    0.0,
                    0.0,
                    10.68864602
                ]
            ],
            "a": 7.96953034,
            "b": 6.01941544,
            "c": 10.68864602,
            "alpha": 90.0,
            "beta": 90.0,
            "gamma": 90.0,
            "volume": 512.7548074142761
        },
        "sites": [
            {
                "species": [
                    {
                        "element": "Rb",
                        "occu": 1
                    }
                ],
                "abc": [
                    0.01472535,
                    0.25,
                    0.30420379
                ],
                "xyz": [
                    0.11735412359211901,
                    1.50485386,
                    3.2515266292524156
                ],
                "label": "Rb",
                "properties": {}
            },
            {
                "species": [
                    {
                        "element": "Rb",
                        "occu": 1
                    }
                ],
                "abc": [
                    0.98527465,
                    0.75,
                    0.69579621
                ],
                "xyz": [
                    7.852176216407882,
                    4.5145615800000005,
                    7.4371193907475845
                ],
                "label": "Rb",
                "properties": {}
            },
            {
                "species": [
                    {
                        "element": "Rb",
                        "occu": 1
                    }
                ],
                "abc": [
                    0.51472535,
                    0.25,
                    0.19579621
                ],
                "xyz": [
                    4.102119293592119,
                    1.50485386,
                    2.092796380747584
                ],
                "label": "Rb",
                "properties": {}
            },
            {
                "species": [
                    {
                        "element": "Rb",
                        "occu": 1
                    }
                ],
                "abc": [
                    0.48527465,
                    0.75,
                    0.80420379
                ],
                "xyz": [
                    3.867411046407881,
                    4.5145615800000005,
                    8.595849639252416
                ],
                "label": "Rb",
                "properties": {}
            },
            {
                "species": [
                    {
                        "element": "Rb",
                        "occu": 1
                    }
                ],
                "abc": [
                    0.33313396,
                    0.25,
                    0.58711369
                ],
                "xyz": [
                    2.6549212015043464,
                    1.50485386,
                    6.275450405906014
                ],
                "label": "Rb",
                "properties": {}
            },
            {
                "species": [
                    {
                        "element": "Rb",
                        "occu": 1
                    }
                ],
                "abc": [
                    0.66686604,
                    0.75,
                    0.41288631
                ],
                "xyz": [
                    5.314609138495654,
                    4.5145615800000005,
                    4.413195614093986
                ],
                "label": "Rb",
                "properties": {}
            },
            {
                "species": [
                    {
                        "element": "Rb",
                        "occu": 1
                    }
                ],
                "abc": [
                    0.83313396,
                    0.25,
                    0.91288631
                ],
                "xyz": [
                    6.639686371504347,
                    1.50485386,
                    9.757518624093986
                ],
                "label": "Rb",
                "properties": {}
            },
            {
                "species": [
                    {
                        "element": "Rb",
                        "occu": 1
                    }
                ],
                "abc": [
                    0.16686604,
                    0.75,
                    0.08711369
                ],
                "xyz": [
                    1.3298439684956536,
                    4.5145615800000005,
                    0.9311273959060138
                ],
                "label": "Rb",
                "properties": {}
            },
            {
                "species": [
                    {
                        "element": "Cr",
                        "occu": 1
                    }
                ],
                "abc": [
                    0.76758025,
                    0.25,
                    0.57857813
                ],
                "xyz": [
                    6.117254090759785,
                    1.50485386,
                    6.184216826483543
                ],
                "label": "Cr",
                "properties": {}
            },
            {
                "species": [
                    {
                        "element": "Cr",
                        "occu": 1
                    }
                ],
                "abc": [
                    0.23241975,
                    0.75,
                    0.42142187
                ],
                "xyz": [
                    1.8522762492402152,
                    4.5145615800000005,
                    4.504429193516457
                ],
                "label": "Cr",
                "properties": {}
            },
            {
                "species": [
                    {
                        "element": "Cr",
                        "occu": 1
                    }
                ],
                "abc": [
                    0.26758025,
                    0.25,
                    0.92142187
                ],
                "xyz": [
                    2.1324889207597852,
                    1.50485386,
                    9.848752203516458
                ],
                "label": "Cr",
                "properties": {}
            },
            {
                "species": [
                    {
                        "element": "Cr",
                        "occu": 1
                    }
                ],
                "abc": [
                    0.73241975,
                    0.75,
                    0.07857813
                ],
                "xyz": [
                    5.837041419240215,
                    4.5145615800000005,
                    0.8398938164835426
                ],
                "label": "Cr",
                "properties": {}
            },
            {
                "species": [
                    {
                        "element": "O",
                        "occu": 1
                    }
                ],
                "abc": [
                    0.30632,
                    0.52518451,
                    0.35133556
                ],
                "xyz": [
                    2.4412265337488,
                    3.1613037483428346,
                    3.7553014350784713
                ],
                "label": "O",
                "properties": {}
            },
            {
                "species": [
                    {
                        "element": "O",
                        "occu": 1
                    }
                ],
                "abc": [
                    0.69368,
                    0.02518451,
                    0.64866444
                ],
                "xyz": [
                    5.5283038062512,
                    0.15159602834283442,
                    6.933344584921529
                ],
                "label": "O",
                "properties": {}
            },
            {
                "species": [
                    {
                        "element": "O",
                        "occu": 1
                    }
                ],
                "abc": [
                    0.80632,
                    0.97481549,
                    0.14866444
                ],
                "xyz": [
                    6.4259917037488,
                    5.867819411657166,
                    1.5890215749215288
                ],
                "label": "O",
                "properties": {}
            },
            {
                "species": [
                    {
                        "element": "O",
                        "occu": 1
                    }
                ],
                "abc": [
                    0.19368,
                    0.47481549,
                    0.85133556
                ],
                "xyz": [
                    1.5435386362512,
                    2.858111691657166,
                    9.09962444507847
                ],
                "label": "O",
                "properties": {}
            },
            {
                "species": [
                    {
                        "element": "O",
                        "occu": 1
                    }
                ],
                "abc": [
                    0.69368,
                    0.47481549,
                    0.64866444
                ],
                "xyz": [
                    5.5283038062512,
                    2.858111691657166,
                    6.933344584921529
                ],
                "label": "O",
                "properties": {}
            },
            {
                "species": [
                    {
                        "element": "O",
                        "occu": 1
                    }
                ],
                "abc": [
                    0.30632,
                    0.97481549,
                    0.35133556
                ],
                "xyz": [
                    2.4412265337488,
                    5.867819411657166,
                    3.7553014350784713
                ],
                "label": "O",
                "properties": {}
            },
            {
                "species": [
                    {
                        "element": "O",
                        "occu": 1
                    }
                ],
                "abc": [
                    0.19368,
                    0.02518451,
                    0.85133556
                ],
                "xyz": [
                    1.5435386362512,
                    0.15159602834283442,
                    9.09962444507847
                ],
                "label": "O",
                "properties": {}
            },
            {
                "species": [
                    {
                        "element": "O",
                        "occu": 1
                    }
                ],
                "abc": [
                    0.80632,
                    0.52518451,
                    0.14866444
                ],
                "xyz": [
                    6.4259917037488,
                    3.1613037483428346,
                    1.5890215749215288
                ],
                "label": "O",
                "properties": {}
            },
            {
                "species": [
                    {
                        "element": "O",
                        "occu": 1
                    }
                ],
                "abc": [
                    0.70363671,
                    0.25,
                    0.43082487
                ],
                "xyz": [
                    5.607654108682782,
                    1.50485386,
                    4.604934532042518
                ],
                "label": "O",
                "properties": {}
            },
            {
                "species": [
                    {
                        "element": "O",
                        "occu": 1
                    }
                ],
                "abc": [
                    0.29636329,
                    0.75,
                    0.56917513
                ],
                "xyz": [
                    2.361876231317219,
                    4.5145615800000005,
                    6.0837114879574825
                ],
                "label": "O",
                "properties": {}
            },
            {
                "species": [
                    {
                        "element": "O",
                        "occu": 1
                    }
                ],
                "abc": [
                    0.20363671,
                    0.25,
                    0.06917513
                ],
                "xyz": [
                    1.6228889386827814,
                    1.50485386,
                    0.7393884779574826
                ],
                "label": "O",
                "properties": {}
            },
            {
                "species": [
                    {
                        "element": "O",
                        "occu": 1
                    }
                ],
                "abc": [
                    0.79636329,
                    0.75,
                    0.93082487
                ],
                "xyz": [
                    6.3466414013172185,
                    4.5145615800000005,
                    9.949257542042519
                ],
                "label": "O",
                "properties": {}
            },
            {
                "species": [
                    {
                        "element": "O",
                        "occu": 1
                    }
                ],
                "abc": [
                    0.52550499,
                    0.75,
                    0.0846505
                ],
                "xyz": [
                    4.188027961626396,
                    4.5145615800000005,
                    0.90479922991601
                ],
                "label": "O",
                "properties": {}
            },
            {
                "species": [
                    {
                        "element": "O",
                        "occu": 1
                    }
                ],
                "abc": [
                    0.47449501,
                    0.25,
                    0.9153495
                ],
                "xyz": [
                    3.7815023783736037,
                    1.50485386,
                    9.78384679008399
                ],
                "label": "O",
                "properties": {}
            },
            {
                "species": [
                    {
                        "element": "O",
                        "occu": 1
                    }
                ],
                "abc": [
                    0.02550499,
                    0.75,
                    0.4153495
                ],
                "xyz": [
                    0.20326279162639663,
                    4.5145615800000005,
                    4.43952378008399
                ],
                "label": "O",
                "properties": {}
            },
            {
                "species": [
                    {
                        "element": "O",
                        "occu": 1
                    }
                ],
                "abc": [
                    0.97449501,
                    0.25,
                    0.5846505
                ],
                "xyz": [
                    7.766267548373604,
                    1.50485386,
                    6.24912223991601
                ],
                "label": "O",
                "properties": {}
            }
        ]
    },
    "spacegroup": {
        "source": "spglib",
        "symbol": "Pnma",
        "number": 62,
        "point_group": "mmm",
        "crystal_system": "orthorhombic",
        "hall": "-P 2ac 2n"
    },
    "dielectric": {
        "epsilon_ionic": [
            [
                3.49501118,
                3.99e-06,
                6.58e-06
            ],
            [
                3.99e-06,
                5.84421933,
                7.65e-06
            ],
            [
                6.58e-06,
                7.65e-06,
                4.87116211
            ]
        ],
        "epsilon_ionic_avg": 4.73679754,
        "epsilon_ionic_eig": [
            3.495011179961762,
            4.871162109971322,
            5.844219330066918
        ],
        "epsilon_electronic": [
            [
                2.86215511,
                0.0,
                0.0
            ],
            [
                0.0,
                2.88033408,
                0.0
            ],
            [
                0.0,
                0.0,
                2.82219677
            ]
        ],
        "epsilon_electronic_avg": 2.8548953200000002,
        "epsilon_electronic_eig": [
            2.86215511,
            2.88033408,
            2.82219677
        ]
    },
    "phonon": {
        "lowest_freq": -0.2130451177984737,
        "frequency": [
            -0.2130451177984737,
            -0.13850979869800437,
            -0.03724375864118543,
            0.6565452792129582,
            0.9096800736323027,
            0.9817431717299185,
            1.093280461854927,
            1.2740520645439712,
            1.3961655520835332,
            1.4947773045746757,
            1.6618084798017099,
            1.7074373033671983,
            1.7768074968838248,
            1.7808464679217741,
            1.9533553545300064,
            1.9575445587268525,
            2.0396748150370674,
            2.094130824200571,
            2.1030398337678724,
            2.1336994298787215,
            2.166809861827798,
            2.377855745152828,
            2.399813837940266,
            2.4359912358227263,
            2.4598178779927236,
            2.512642313712565,
            2.848326287483086,
            2.8518040389877948,
            2.870485587016932,
            2.930455033133891,
            2.9463291903290063,
            2.974856260254648,
            3.1660202635792722,
            3.1769558793559605,
            3.18638243625436,
            3.2081974276910494,
            3.240536959633108,
            3.2463969297591055,
            3.2686255570475713,
            3.3919952003464933,
            3.419520301093832,
            3.4958666930847837,
            3.524256906638931,
            3.565941399299958,
            3.8217441889186263,
            3.916100639838572,
            3.9681894770265376,
            4.0042078160751,
            10.071954695749259,
            10.111937917530408,
            10.143694897437188,
            10.18873531874999,
            10.20843206789289,
            10.257246488546274,
            10.272900758248154,
            10.414016848008767,
            11.1452758624216,
            11.167614930212832,
            11.167838633585253,
            11.183163037887942,
            11.18549126127181,
            11.197746395194644,
            11.30049038823127,
            11.402149740745017,
            11.46798101369084,
            11.499548350863451,
            11.57451736395288,
            11.576119740137223,
            25.921502288546584,
            25.922342540259567,
            25.935615554612962,
            25.93842035442638,
            27.09726806274838,
            27.367829495022654,
            27.372802493625265,
            27.37919014403246,
            27.37938335727767,
            27.392555866087825,
            27.4581061310165,
            27.60623404769764,
            28.007207528412287,
            28.008719411517095,
            28.43011791446255,
            28.69142772565955
        ]
    },
    "born_effective_charge": {
        "avg_abs_trace": 1.477191666666667,
        "tensors": [
            [
                [
                    1.24713,
                    -0.0,
                    -0.02249
                ],
                [
                    -9e-05,
                    1.38832,
                    4e-05
                ],
                [
                    -0.00594,
                    0.0,
                    1.45487
                ]
            ],
            [
                [
                    1.24699,
                    -0.0,
                    -0.02214
                ],
                [
                    9e-05,
                    1.38832,
                    -4e-05
                ],
                [
                    -0.00611,
                    0.0,
                    1.45499
                ]
            ],
            [
                [
                    1.24713,
                    -0.0,
                    0.02249
                ],
                [
                    -9e-05,
                    1.38832,
                    -4e-05
                ],
                [
                    0.00611,
                    0.0,
                    1.45499
                ]
            ],
            [
                [
                    1.24699,
                    -0.0,
                    0.02214
                ],
                [
                    9e-05,
                    1.38832,
                    4e-05
                ],
                [
                    0.00594,
                    0.0,
                    1.45487
                ]
            ],
            [
                [
                    1.40225,
                    -0.0,
                    0.0534
                ],
                [
                    -0.00011,
                    1.24014,
                    4e-05
                ],
                [
                    -0.01867,
                    0.0,
                    1.13582
                ]
            ],
            [
                [
                    1.40218,
                    -0.0,
                    0.05341
                ],
                [
                    0.00011,
                    1.24014,
                    -4e-05
                ],
                [
                    -0.01864,
                    0.0,
                    1.1359
                ]
            ],
            [
                [
                    1.40225,
                    -0.0,
                    -0.0534
                ],
                [
                    -0.00011,
                    1.24014,
                    -4e-05
                ],
                [
                    0.01864,
                    0.0,
                    1.1359
                ]
            ],
            [
                [
                    1.40218,
                    -0.0,
                    -0.05341
                ],
                [
                    0.00011,
                    1.24014,
                    4e-05
                ],
                [
                    0.01867,
                    0.0,
                    1.13582
                ]
            ],
            [
                [
                    2.59992,
                    -0.0,
                    -0.05768
                ],
                [
                    -0.00058,
                    2.61598,
                    0.00022
                ],
                [
                    0.01923,
                    0.0,
                    2.42537
                ]
            ],
            [
                [
                    2.6011,
                    -0.0,
                    -0.05711
                ],
                [
                    0.00058,
                    2.61598,
                    -0.00022
                ],
                [
                    0.02024,
                    0.0,
                    2.42563
                ]
            ],
            [
                [
                    2.59992,
                    -0.0,
                    0.05768
                ],
                [
                    -0.00058,
                    2.61598,
                    -0.00022
                ],
                [
                    -0.02024,
                    0.0,
                    2.42563
                ]
            ],
            [
                [
                    2.6011,
                    -0.0,
                    0.05711
                ],
                [
                    0.00058,
                    2.61598,
                    0.00022
                ],
                [
                    -0.01923,
                    0.0,
                    2.42537
                ]
            ],
            [
                [
                    -0.92898,
                    0.49782,
                    0.33762
                ],
                [
                    0.54132,
                    -1.97126,
                    -0.70787
                ],
                [
                    0.24599,
                    -0.66612,
                    -1.03745
                ]
            ],
            [
                [
                    -0.92863,
                    -0.49695,
                    0.33719
                ],
                [
                    -0.54132,
                    -1.97126,
                    0.70787
                ],
                [
                    0.24684,
                    0.66825,
                    -1.03877
                ]
            ],
            [
                [
                    -0.92898,
                    -0.49782,
                    -0.33762
                ],
                [
                    -0.54289,
                    -1.97506,
                    -0.70942
                ],
                [
                    -0.24684,
                    -0.66825,
                    -1.03877
                ]
            ],
            [
                [
                    -0.92863,
                    0.49695,
                    -0.33719
                ],
                [
                    0.54289,
                    -1.97506,
                    0.70942
                ],
                [
                    -0.24599,
                    0.66612,
                    -1.03745
                ]
            ],
            [
                [
                    -0.92863,
                    0.49695,
                    0.33719
                ],
                [
                    0.54289,
                    -1.97506,
                    -0.70942
                ],
                [
                    0.24684,
                    -0.66825,
                    -1.03877
                ]
            ],
            [
                [
                    -0.92898,
                    -0.49782,
                    0.33762
                ],
                [
                    -0.54289,
                    -1.97506,
                    0.70942
                ],
                [
                    0.24599,
                    0.66612,
                    -1.03745
                ]
            ],
            [
                [
                    -0.92863,
                    -0.49695,
                    -0.33719
                ],
                [
                    -0.54132,
                    -1.97126,
                    -0.70787
                ],
                [
                    -0.24599,
                    -0.66612,
                    -1.03745
                ]
            ],
            [
                [
                    -0.92898,
                    0.49782,
                    -0.33762
                ],
                [
                    0.54132,
                    -1.97126,
                    0.70787
                ],
                [
                    -0.24684,
                    0.66825,
                    -1.03877
                ]
            ],
            [
                [
                    -0.86763,
                    -0.0,
                    -0.53303
                ],
                [
                    -0.00034,
                    -0.72849,
                    -0.00114
                ],
                [
                    -0.47244,
                    0.0,
                    -2.31315
                ]
            ],
            [
                [
                    -0.86838,
                    -0.0,
                    -0.53484
                ],
                [
                    0.00034,
                    -0.72849,
                    0.00114
                ],
                [
                    -0.47323,
                    0.0,
                    -2.3154
                ]
            ],
            [
                [
                    -0.86763,
                    -0.0,
                    0.53303
                ],
                [
                    -0.00034,
                    -0.72849,
                    0.00114
                ],
                [
                    0.47323,
                    0.0,
                    -2.3154
                ]
            ],
            [
                [
                    -0.86838,
                    -0.0,
                    0.53484
                ],
                [
                    0.00034,
                    -0.72849,
                    -0.00114
                ],
                [
                    0.47244,
                    0.0,
                    -2.31315
                ]
            ],
            [
                [
                    -2.52638,
                    -0.0,
                    0.00907
                ],
                [
                    -0.0031,
                    -0.56963,
                    0.00016
                ],
                [
                    0.05629,
                    0.0,
                    -0.62551
                ]
            ],
            [
                [
                    -2.52195,
                    -0.0,
                    0.00854
                ],
                [
                    0.0031,
                    -0.56963,
                    -0.00016
                ],
                [
                    0.06308,
                    0.0,
                    -0.62608
                ]
            ],
            [
                [
                    -2.52638,
                    -0.0,
                    -0.00907
                ],
                [
                    -0.0031,
                    -0.56963,
                    -0.00016
                ],
                [
                    -0.06308,
                    0.0,
                    -0.62608
                ]
            ],
            [
                [
                    -2.52195,
                    -0.0,
                    -0.00854
                ],
                [
                    0.0031,
                    -0.56963,
                    0.00016
                ],
                [
                    -0.05629,
                    0.0,
                    -0.62551
                ]
            ]
        ]
    },
    "band_gap": 3.1477,
    "is_direct": true,
    "formula": "Rb2CrO4"
}