{
    "mp_id": "mp-1213231",
    "nelements": 4,
    "nsites": 12,
    "elements": [
        "Cs",
        "Mo",
        "O",
        "Y"
    ],
    "structure": {
        "@module": "pymatgen.core.structure",
        "@class": "Structure",
        "charge": null,
        "lattice": {
            "matrix": [
                [
                    6.00793893,
                    0.0,
                    0.0
                ],
                [
                    -3.00396997,
                    5.20302747,
                    0.0
                ],
                [
                    0.0,
                    0.0,
                    8.12315415
                ]
            ],
            "a": 6.00793893,
            "b": 6.007938950608303,
            "c": 8.12315415,
            "alpha": 90.0,
            "beta": 90.0,
            "gamma": 120.00000544759443,
            "volume": 253.92550394325605
        },
        "sites": [
            {
                "species": [
                    {
                        "element": "Cs",
                        "occu": 1
                    }
                ],
                "abc": [
                    0.0,
                    0.0,
                    0.0
                ],
                "xyz": [
                    0.0,
                    0.0,
                    0.0
                ],
                "label": "Cs",
                "properties": {}
            },
            {
                "species": [
                    {
                        "element": "Y",
                        "occu": 1
                    }
                ],
                "abc": [
                    0.0,
                    0.0,
                    0.5
                ],
                "xyz": [
                    0.0,
                    0.0,
                    4.061577075
                ],
                "label": "Y",
                "properties": {}
            },
            {
                "species": [
                    {
                        "element": "Mo",
                        "occu": 1
                    }
                ],
                "abc": [
                    0.333333,
                    0.666667,
                    0.26208596
                ],
                "xyz": [
                    -3.340636300475097e-06,
                    3.4686867143424904,
                    2.128964653630734
                ],
                "label": "Mo",
                "properties": {}
            },
            {
                "species": [
                    {
                        "element": "Mo",
                        "occu": 1
                    }
                ],
                "abc": [
                    0.666667,
                    0.333333,
                    0.73791404
                ],
                "xyz": [
                    3.0039723006363,
                    1.7343407556575101,
                    5.994189496369266
                ],
                "label": "Mo",
                "properties": {}
            },
            {
                "species": [
                    {
                        "element": "O",
                        "occu": 1
                    }
                ],
                "abc": [
                    0.16926295,
                    0.83073705,
                    0.33213508
                ],
                "xyz": [
                    -1.478587684454745,
                    4.322347691496764,
                    2.697984453462582
                ],
                "label": "O",
                "properties": {}
            },
            {
                "species": [
                    {
                        "element": "O",
                        "occu": 1
                    }
                ],
                "abc": [
                    0.83073705,
                    0.16926295,
                    0.66786492
                ],
                "xyz": [
                    4.482556644454744,
                    0.8806797785032365,
                    5.425169696537417
                ],
                "label": "O",
                "properties": {}
            },
            {
                "species": [
                    {
                        "element": "O",
                        "occu": 1
                    }
                ],
                "abc": [
                    0.16926295,
                    0.33852591,
                    0.33213508
                ],
                "xyz": [
                    -2.009952790871239e-07,
                    1.7613596090367478,
                    2.697984453462582
                ],
                "label": "O",
                "properties": {}
            },
            {
                "species": [
                    {
                        "element": "O",
                        "occu": 1
                    }
                ],
                "abc": [
                    0.83073705,
                    0.66147409,
                    0.66786492
                ],
                "xyz": [
                    3.003969160995279,
                    3.4416678609632525,
                    5.425169696537417
                ],
                "label": "O",
                "properties": {}
            },
            {
                "species": [
                    {
                        "element": "O",
                        "occu": 1
                    }
                ],
                "abc": [
                    0.66147409,
                    0.83073705,
                    0.33213508
                ],
                "xyz": [
                    1.4785867853309353,
                    4.322347691496764,
                    2.697984453462582
                ],
                "label": "O",
                "properties": {}
            },
            {
                "species": [
                    {
                        "element": "O",
                        "occu": 1
                    }
                ],
                "abc": [
                    0.33852591,
                    0.16926295,
                    0.66786492
                ],
                "xyz": [
                    1.5253821746690646,
                    0.8806797785032365,
                    5.425169696537417
                ],
                "label": "O",
                "properties": {}
            },
            {
                "species": [
                    {
                        "element": "O",
                        "occu": 1
                    }
                ],
                "abc": [
                    0.333333,
                    0.666667,
                    0.04773688
                ],
                "xyz": [
                    -3.340636300475097e-06,
                    3.4686867143424904,
                    0.387774034880052
                ],
                "label": "O",
                "properties": {}
            },
            {
                "species": [
                    {
                        "element": "O",
                        "occu": 1
                    }
                ],
                "abc": [
                    0.666667,
                    0.333333,
                    0.95226312
                ],
                "xyz": [
                    3.0039723006363,
                    1.7343407556575101,
                    7.7353801151199475
                ],
                "label": "O",
                "properties": {}
            }
        ]
    },
    "spacegroup": {
        "source": "spglib",
        "symbol": "P-3m1",
        "number": 164,
        "point_group": "-3m",
        "crystal_system": "trigonal",
        "hall": "-P 3 2\""
    },
    "dielectric": {
        "epsilon_ionic": [
            [
                5.49637118,
                -9.5e-07,
                -1e-08
            ],
            [
                -9.5e-07,
                5.49636042,
                -6.064e-05
            ],
            [
                -1e-08,
                -6.064e-05,
                2.80646494
            ]
        ],
        "epsilon_ionic_avg": 4.59973218,
        "epsilon_ionic_eig": [
            5.496371263242018,
            5.496360338125028,
            2.806464938632955
        ],
        "epsilon_electronic": [
            [
                3.05430679,
                2.9e-07,
                0.0
            ],
            [
                2.9e-07,
                3.05430702,
                0.0
            ],
            [
                0.0,
                -0.0,
                2.81472892
            ]
        ],
        "epsilon_electronic_avg": 2.9744475766666665,
        "epsilon_electronic_eig": [
            3.05430659303045,
            3.05430721696955,
            2.81472892
        ]
    },
    "phonon": {
        "lowest_freq": -0.10403905984841633,
        "frequency": [
            -0.10403905984841633,
            -0.1040390490424684,
            -0.024512806914237524,
            1.056391165958509,
            1.056391274694799,
            1.7792221102155332,
            1.779222233842656,
            2.302212633574292,
            2.3351786651809965,
            2.978500933080956,
            2.9785011136013875,
            3.0538564707602833,
            4.134512093835657,
            4.176690994074292,
            4.176691371497659,
            5.8532644744687765,
            5.853265079908995,
            6.734562493936893,
            8.365526912131285,
            8.365527160460065,
            9.048615983066444,
            9.048616212648637,
            9.385625963595322,
            9.56869390399894,
            9.838468562849892,
            9.838469159040544,
            9.922194825151625,
            9.922195465574767,
            23.423058407482152,
            23.423059816094817,
            23.732360649277513,
            23.73236203953183,
            25.735194269480584,
            27.771344060398096,
            27.91544347539638,
            28.08075302996221
        ]
    },
    "born_effective_charge": {
        "avg_abs_trace": 2.304758611111111,
        "tensors": [
            [
                [
                    1.31773,
                    0.0,
                    0.0
                ],
                [
                    -0.0,
                    1.3177,
                    -6e-05
                ],
                [
                    0.0,
                    0.0,
                    1.38183
                ]
            ],
            [
                [
                    5.30199,
                    0.0,
                    0.0
                ],
                [
                    0.0,
                    5.30205,
                    -9e-05
                ],
                [
                    0.0,
                    0.0,
                    4.64598
                ]
            ],
            [
                [
                    3.95408,
                    -0.00039,
                    2e-05
                ],
                [
                    0.0,
                    3.95417,
                    0.00018
                ],
                [
                    0.0,
                    0.0,
                    3.20071
                ]
            ],
            [
                [
                    3.95408,
                    0.00039,
                    -2e-05
                ],
                [
                    0.0,
                    3.9541,
                    4e-05
                ],
                [
                    0.0,
                    0.0,
                    3.20124
                ]
            ],
            [
                [
                    -3.01212,
                    1.35665,
                    1.18507
                ],
                [
                    1.3561,
                    -1.44642,
                    -0.68418
                ],
                [
                    0.88534,
                    -0.51115,
                    -1.30566
                ]
            ],
            [
                [
                    -3.01259,
                    1.35603,
                    1.18489
                ],
                [
                    1.35619,
                    -1.44639,
                    -0.68415
                ],
                [
                    0.88631,
                    -0.51171,
                    -1.30603
                ]
            ],
            [
                [
                    -0.66336,
                    -3e-05,
                    -0.00021
                ],
                [
                    -0.0,
                    -3.7952,
                    1.36834
                ],
                [
                    0.0,
                    1.0223,
                    -1.30566
                ]
            ],
            [
                [
                    -0.66336,
                    3e-05,
                    0.00021
                ],
                [
                    -0.0,
                    -3.79533,
                    1.36828
                ],
                [
                    0.0,
                    1.02342,
                    -1.30603
                ]
            ],
            [
                [
                    -3.01259,
                    -1.35603,
                    -1.18489
                ],
                [
                    -1.3561,
                    -1.44642,
                    -0.68418
                ],
                [
                    -0.88534,
                    -0.51115,
                    -1.30566
                ]
            ],
            [
                [
                    -3.01212,
                    -1.35665,
                    -1.18507
                ],
                [
                    -1.35619,
                    -1.44639,
                    -0.68415
                ],
                [
                    -0.88631,
                    -0.51171,
                    -1.30603
                ]
            ],
            [
                [
                    -0.57587,
                    -6e-05,
                    -1e-05
                ],
                [
                    0.0,
                    -0.57586,
                    -8e-05
                ],
                [
                    0.0,
                    0.0,
                    -2.29569
                ]
            ],
            [
                [
                    -0.57587,
                    6e-05,
                    1e-05
                ],
                [
                    0.0,
                    -0.57601,
                    6e-05
                ],
                [
                    0.0,
                    0.0,
                    -2.29899
                ]
            ]
        ]
    },
    "band_gap": 3.939,
    "is_direct": false,
    "formula": "CsY(MoO4)2"
}