{
    "mp_id": "mp-18199",
    "nelements": 4,
    "nsites": 32,
    "elements": [
        "As",
        "O",
        "Sr",
        "Ta"
    ],
    "structure": {
        "@module": "pymatgen.core.structure",
        "@class": "Structure",
        "charge": null,
        "lattice": {
            "matrix": [
                [
                    6.36776499,
                    0.0,
                    0.0
                ],
                [
                    0.0,
                    10.67470526,
                    0.0
                ],
                [
                    0.0,
                    0.0,
                    12.87475918
                ]
            ],
            "a": 6.36776499,
            "b": 10.67470526,
            "c": 12.87475918,
            "alpha": 90.0,
            "beta": 90.0,
            "gamma": 90.0,
            "volume": 875.1490663252536
        },
        "sites": [
            {
                "species": [
                    {
                        "element": "Sr",
                        "occu": 1
                    }
                ],
                "abc": [
                    0.24677901,
                    0.04305034,
                    0.62816464
                ],
                "xyz": [
                    1.57143074014486,
                    0.4595496908427884,
                    8.087468465391396
                ],
                "label": "Sr",
                "properties": {}
            },
            {
                "species": [
                    {
                        "element": "Sr",
                        "occu": 1
                    }
                ],
                "abc": [
                    0.74677901,
                    0.45694966,
                    0.87183536
                ],
                "xyz": [
                    4.75531323514486,
                    4.8778029391572115,
                    11.224670304608605
                ],
                "label": "Sr",
                "properties": {}
            },
            {
                "species": [
                    {
                        "element": "Sr",
                        "occu": 1
                    }
                ],
                "abc": [
                    0.75322099,
                    0.54305034,
                    0.37183536
                ],
                "xyz": [
                    4.79633424985514,
                    5.796902320842788,
                    4.787290714608605
                ],
                "label": "Sr",
                "properties": {}
            },
            {
                "species": [
                    {
                        "element": "Sr",
                        "occu": 1
                    }
                ],
                "abc": [
                    0.25322099,
                    0.95694966,
                    0.12816464
                ],
                "xyz": [
                    1.61245175485514,
                    10.215155569157211,
                    1.6500888753913951
                ],
                "label": "Sr",
                "properties": {}
            },
            {
                "species": [
                    {
                        "element": "Sr",
                        "occu": 1
                    }
                ],
                "abc": [
                    0.24677901,
                    0.45694966,
                    0.62816464
                ],
                "xyz": [
                    1.57143074014486,
                    4.8778029391572115,
                    8.087468465391396
                ],
                "label": "Sr",
                "properties": {}
            },
            {
                "species": [
                    {
                        "element": "Sr",
                        "occu": 1
                    }
                ],
                "abc": [
                    0.75322099,
                    0.95694966,
                    0.37183536
                ],
                "xyz": [
                    4.79633424985514,
                    10.215155569157211,
                    4.787290714608605
                ],
                "label": "Sr",
                "properties": {}
            },
            {
                "species": [
                    {
                        "element": "Sr",
                        "occu": 1
                    }
                ],
                "abc": [
                    0.76994819,
                    0.25,
                    0.12739502
                ],
                "xyz": [
                    4.902849128395869,
                    2.668676315,
                    1.6401802032312836
                ],
                "label": "Sr",
                "properties": {}
            },
            {
                "species": [
                    {
                        "element": "Sr",
                        "occu": 1
                    }
                ],
                "abc": [
                    0.26994819,
                    0.25,
                    0.37260498
                ],
                "xyz": [
                    1.718966633395868,
                    2.668676315,
                    4.797199386768716
                ],
                "label": "Sr",
                "properties": {}
            },
            {
                "species": [
                    {
                        "element": "Sr",
                        "occu": 1
                    }
                ],
                "abc": [
                    0.23005181,
                    0.75,
                    0.87260498
                ],
                "xyz": [
                    1.464915861604132,
                    8.006028945,
                    11.234578976768717
                ],
                "label": "Sr",
                "properties": {}
            },
            {
                "species": [
                    {
                        "element": "Sr",
                        "occu": 1
                    }
                ],
                "abc": [
                    0.73005181,
                    0.75,
                    0.62739502
                ],
                "xyz": [
                    4.648798356604132,
                    8.006028945,
                    8.077559793231284
                ],
                "label": "Sr",
                "properties": {}
            },
            {
                "species": [
                    {
                        "element": "Sr",
                        "occu": 1
                    }
                ],
                "abc": [
                    0.25322099,
                    0.54305034,
                    0.12816464
                ],
                "xyz": [
                    1.61245175485514,
                    5.796902320842788,
                    1.6500888753913951
                ],
                "label": "Sr",
                "properties": {}
            },
            {
                "species": [
                    {
                        "element": "Sr",
                        "occu": 1
                    }
                ],
                "abc": [
                    0.74677901,
                    0.04305034,
                    0.87183536
                ],
                "xyz": [
                    4.75531323514486,
                    0.4595496908427884,
                    11.224670304608605
                ],
                "label": "Sr",
                "properties": {}
            },
            {
                "species": [
                    {
                        "element": "Ta",
                        "occu": 1
                    }
                ],
                "abc": [
                    0.33970016,
                    0.25,
                    0.95052085
                ],
                "xyz": [
                    2.1631307859453983,
                    2.668676315,
                    12.237727039318903
                ],
                "label": "Ta",
                "properties": {}
            },
            {
                "species": [
                    {
                        "element": "Ta",
                        "occu": 1
                    }
                ],
                "abc": [
                    0.83970016,
                    0.25,
                    0.54947915
                ],
                "xyz": [
                    5.347013280945399,
                    2.668676315,
                    7.074411730681097
                ],
                "label": "Ta",
                "properties": {}
            },
            {
                "species": [
                    {
                        "element": "Ta",
                        "occu": 1
                    }
                ],
                "abc": [
                    0.66029984,
                    0.75,
                    0.04947915
                ],
                "xyz": [
                    4.204634204054602,
                    8.006028945,
                    0.637032140681097
                ],
                "label": "Ta",
                "properties": {}
            },
            {
                "species": [
                    {
                        "element": "Ta",
                        "occu": 1
                    }
                ],
                "abc": [
                    0.16029984,
                    0.75,
                    0.45052085
                ],
                "xyz": [
                    1.0207517090546017,
                    8.006028945,
                    5.8003474493189024
                ],
                "label": "Ta",
                "properties": {}
            },
            {
                "species": [
                    {
                        "element": "As",
                        "occu": 1
                    }
                ],
                "abc": [
                    0.23486864,
                    0.75,
                    0.63757151
                ],
                "xyz": [
                    1.4955883030409136,
                    8.006028945,
                    8.208579651278962
                ],
                "label": "As",
                "properties": {}
            },
            {
                "species": [
                    {
                        "element": "As",
                        "occu": 1
                    }
                ],
                "abc": [
                    0.73486864,
                    0.75,
                    0.86242849
                ],
                "xyz": [
                    4.679470798040914,
                    8.006028945,
                    11.103559118721037
                ],
                "label": "As",
                "properties": {}
            },
            {
                "species": [
                    {
                        "element": "As",
                        "occu": 1
                    }
                ],
                "abc": [
                    0.76513136,
                    0.25,
                    0.36242849
                ],
                "xyz": [
                    4.872176686959087,
                    2.668676315,
                    4.666179528721038
                ],
                "label": "As",
                "properties": {}
            },
            {
                "species": [
                    {
                        "element": "As",
                        "occu": 1
                    }
                ],
                "abc": [
                    0.26513136,
                    0.25,
                    0.13757151
                ],
                "xyz": [
                    1.6882941919590864,
                    2.668676315,
                    1.7712000612789618
                ],
                "label": "As",
                "properties": {}
            },
            {
                "species": [
                    {
                        "element": "As",
                        "occu": 1
                    }
                ],
                "abc": [
                    0.23723489,
                    0.45473805,
                    0.87636346
                ],
                "xyz": [
                    1.5106560269485012,
                    4.854194654257143,
                    11.282968501651563
                ],
                "label": "As",
                "properties": {}
            },
            {
                "species": [
                    {
                        "element": "As",
                        "occu": 1
                    }
                ],
                "abc": [
                    0.73723489,
                    0.04526195,
                    0.62363654
                ],
                "xyz": [
                    4.694538521948501,
                    0.483157975742857,
                    8.029170268348437
                ],
                "label": "As",
                "properties": {}
            },
            {
                "species": [
                    {
                        "element": "As",
                        "occu": 1
                    }
                ],
                "abc": [
                    0.23723489,
                    0.04526195,
                    0.87636346
                ],
                "xyz": [
                    1.5106560269485012,
                    0.483157975742857,
                    11.282968501651563
                ],
                "label": "As",
                "properties": {}
            },
            {
                "species": [
                    {
                        "element": "As",
                        "occu": 1
                    }
                ],
                "abc": [
                    0.73723489,
                    0.45473805,
                    0.62363654
                ],
                "xyz": [
                    4.694538521948501,
                    4.854194654257143,
                    8.029170268348437
                ],
                "label": "As",
                "properties": {}
            },
            {
                "species": [
                    {
                        "element": "As",
                        "occu": 1
                    }
                ],
                "abc": [
                    0.76276511,
                    0.54526195,
                    0.12363654
                ],
                "xyz": [
                    4.857108963051499,
                    5.820510605742856,
                    1.5917906783484372
                ],
                "label": "As",
                "properties": {}
            },
            {
                "species": [
                    {
                        "element": "As",
                        "occu": 1
                    }
                ],
                "abc": [
                    0.26276511,
                    0.54526195,
                    0.37636346
                ],
                "xyz": [
                    1.6732264680514992,
                    5.820510605742856,
                    4.8455889116515625
                ],
                "label": "As",
                "properties": {}
            },
            {
                "species": [
                    {
                        "element": "As",
                        "occu": 1
                    }
                ],
                "abc": [
                    0.26276511,
                    0.95473805,
                    0.37636346
                ],
                "xyz": [
                    1.6732264680514992,
                    10.191547284257142,
                    4.8455889116515625
                ],
                "label": "As",
                "properties": {}
            },
            {
                "species": [
                    {
                        "element": "As",
                        "occu": 1
                    }
                ],
                "abc": [
                    0.76276511,
                    0.95473805,
                    0.12363654
                ],
                "xyz": [
                    4.857108963051499,
                    10.191547284257142,
                    1.5917906783484372
                ],
                "label": "As",
                "properties": {}
            },
            {
                "species": [
                    {
                        "element": "O",
                        "occu": 1
                    }
                ],
                "abc": [
                    0.63845968,
                    0.25,
                    0.94415944
                ],
                "xyz": [
                    4.065561197830603,
                    2.668676315,
                    12.155825417523658
                ],
                "label": "O",
                "properties": {}
            },
            {
                "species": [
                    {
                        "element": "O",
                        "occu": 1
                    }
                ],
                "abc": [
                    0.13845968,
                    0.25,
                    0.55584056
                ],
                "xyz": [
                    0.8816787028306032,
                    2.668676315,
                    7.156313352476341
                ],
                "label": "O",
                "properties": {}
            },
            {
                "species": [
                    {
                        "element": "O",
                        "occu": 1
                    }
                ],
                "abc": [
                    0.36154032,
                    0.75,
                    0.05584056
                ],
                "xyz": [
                    2.302203792169397,
                    8.006028945,
                    0.7189337624763408
                ],
                "label": "O",
                "properties": {}
            },
            {
                "species": [
                    {
                        "element": "O",
                        "occu": 1
                    }
                ],
                "abc": [
                    0.86154032,
                    0.75,
                    0.44415944
                ],
                "xyz": [
                    5.486086287169397,
                    8.006028945,
                    5.718445827523659
                ],
                "label": "O",
                "properties": {}
            }
        ]
    },
    "spacegroup": {
        "source": "spglib",
        "symbol": "Pnma",
        "number": 62,
        "point_group": "mmm",
        "crystal_system": "orthorhombic",
        "hall": "-P 2ac 2n"
    },
    "dielectric": {
        "epsilon_ionic": [
            [
                4.30157151,
                0.0,
                -2.1e-07
            ],
            [
                0.0,
                6.19287465,
                -4e-08
            ],
            [
                -2.1e-07,
                -4e-08,
                5.97529881
            ]
        ],
        "epsilon_ionic_avg": 5.48991499,
        "epsilon_ionic_eig": [
            4.301571509999975,
            5.9752988100000195,
            6.192874650000007
        ],
        "epsilon_electronic": [
            [
                6.49041726,
                0.0,
                0.0
            ],
            [
                0.0,
                8.59861881,
                0.0
            ],
            [
                0.0,
                0.0,
                8.25357953
            ]
        ],
        "epsilon_electronic_avg": 7.780871866666666,
        "epsilon_electronic_eig": [
            6.49041726,
            8.59861881,
            8.25357953
        ]
    },
    "phonon": {
        "lowest_freq": -0.03771727220006657,
        "frequency": [
            -0.03771727220006657,
            -0.036990445254456904,
            -0.016869646207081805,
            0.788536997739704,
            1.019241579123813,
            1.1639504785569208,
            1.5949307392798462,
            1.6090467234795223,
            1.620116287147887,
            1.6459478263084262,
            1.6888197188358,
            1.7435261096583388,
            1.777671376895562,
            1.8673881146152587,
            1.9532129586739677,
            2.0329563232354366,
            2.0660720494737643,
            2.0783068434576863,
            2.358846001700094,
            2.4016093461355084,
            2.4165483655393736,
            2.4200403505960457,
            2.4469129577331805,
            2.546135894945772,
            2.6586203711986114,
            2.7519261190630067,
            2.7939171564037593,
            2.918258195838708,
            3.026265709536446,
            3.1719546523397786,
            3.2148696338185747,
            3.2208345926439375,
            3.309063758524063,
            3.3343603202094636,
            3.3560340354118003,
            3.4218752804648704,
            3.45891804777695,
            3.461096217076667,
            3.519327407883675,
            3.5610194581353123,
            3.5786460175451005,
            3.6032373442478622,
            3.6169651110235344,
            3.711222456172106,
            3.7183451641681247,
            3.72101118924382,
            3.7405691307542344,
            3.7630518637920596,
            3.7670401947335925,
            3.9385790939839764,
            3.9573215729413245,
            4.060002294061646,
            4.117811185924093,
            4.156357931726878,
            4.201291729591212,
            4.201507451382926,
            4.20897468238974,
            4.250300576423276,
            4.259042926600675,
            4.327389968172805,
            4.334221895642117,
            4.3409794320299815,
            4.436713992461522,
            4.514985957342405,
            4.545955519216566,
            4.555614455549207,
            4.587829306715987,
            4.68660918494371,
            4.842191040378276,
            4.884442582800133,
            4.8923760826964795,
            5.02171327107199,
            7.413294862962607,
            7.449649842522141,
            7.548501042315114,
            7.5762442450512335,
            7.711943148899483,
            7.725365177082372,
            7.8628637255291505,
            7.875427225374379,
            7.893547503893307,
            7.957931386448655,
            7.984240052538575,
            8.012750535553549,
            9.478983409351057,
            9.489749767310604,
            9.544293284389491,
            9.794240982907453,
            10.316830883464384,
            10.321903290629068,
            10.4010498628105,
            10.558901267888015,
            18.548426491148845,
            18.621252179194578,
            18.647730151409913,
            18.76816196858082
        ]
    },
    "born_effective_charge": {
        "avg_abs_trace": 2.370572291666667,
        "tensors": [
            [
                [
                    2.48625,
                    -0.30802,
                    0.18095
                ],
                [
                    -0.02441,
                    2.04141,
                    0.5714
                ],
                [
                    0.09599,
                    0.2477,
                    2.2691
                ]
            ],
            [
                [
                    2.48625,
                    0.30802,
                    -0.18095
                ],
                [
                    0.02477,
                    2.04081,
                    0.57079
                ],
                [
                    -0.09641,
                    0.24732,
                    2.27003
                ]
            ],
            [
                [
                    2.48689,
                    0.30871,
                    0.1811
                ],
                [
                    0.02441,
                    2.04141,
                    -0.5714
                ],
                [
                    0.09641,
                    -0.24732,
                    2.27003
                ]
            ],
            [
                [
                    2.48689,
                    -0.30871,
                    -0.1811
                ],
                [
                    -0.02477,
                    2.04081,
                    -0.57079
                ],
                [
                    -0.09599,
                    -0.2477,
                    2.2691
                ]
            ],
            [
                [
                    2.48625,
                    0.30802,
                    0.18095
                ],
                [
                    0.02477,
                    2.04081,
                    -0.57079
                ],
                [
                    0.09599,
                    -0.2477,
                    2.2691
                ]
            ],
            [
                [
                    2.48689,
                    -0.30871,
                    0.1811
                ],
                [
                    -0.02477,
                    2.04081,
                    0.57079
                ],
                [
                    0.09641,
                    0.24732,
                    2.27003
                ]
            ],
            [
                [
                    2.54638,
                    0.0,
                    0.38614
                ],
                [
                    -9e-05,
                    3.31003,
                    -3e-05
                ],
                [
                    0.0007,
                    -0.0,
                    2.64521
                ]
            ],
            [
                [
                    2.54638,
                    0.0,
                    -0.38614
                ],
                [
                    -9e-05,
                    3.31003,
                    3e-05
                ],
                [
                    -0.00076,
                    -0.0,
                    2.64648
                ]
            ],
            [
                [
                    2.54664,
                    0.0,
                    0.38472
                ],
                [
                    9e-05,
                    3.31003,
                    3e-05
                ],
                [
                    0.00076,
                    -0.0,
                    2.64648
                ]
            ],
            [
                [
                    2.54664,
                    0.0,
                    -0.38472
                ],
                [
                    9e-05,
                    3.31003,
                    -3e-05
                ],
                [
                    -0.0007,
                    -0.0,
                    2.64521
                ]
            ],
            [
                [
                    2.48689,
                    0.30871,
                    -0.1811
                ],
                [
                    0.02441,
                    2.04141,
                    0.5714
                ],
                [
                    -0.09599,
                    0.2477,
                    2.2691
                ]
            ],
            [
                [
                    2.48625,
                    -0.30802,
                    -0.18095
                ],
                [
                    -0.02441,
                    2.04141,
                    -0.5714
                ],
                [
                    -0.09641,
                    -0.24732,
                    2.27003
                ]
            ],
            [
                [
                    1.12282,
                    0.0,
                    0.13545
                ],
                [
                    0.00038,
                    3.15972,
                    -0.00029
                ],
                [
                    -0.12897,
                    -0.0,
                    2.06739
                ]
            ],
            [
                [
                    1.12282,
                    0.0,
                    -0.13545
                ],
                [
                    0.00038,
                    3.15972,
                    0.00029
                ],
                [
                    0.1295,
                    -0.0,
                    2.0689
                ]
            ],
            [
                [
                    1.12142,
                    0.0,
                    0.13431
                ],
                [
                    -0.00038,
                    3.15972,
                    0.00029
                ],
                [
                    -0.1295,
                    -0.0,
                    2.0689
                ]
            ],
            [
                [
                    1.12142,
                    0.0,
                    -0.13431
                ],
                [
                    -0.00038,
                    3.15972,
                    -0.00029
                ],
                [
                    0.12897,
                    -0.0,
                    2.06739
                ]
            ],
            [
                [
                    -1.66179,
                    0.0,
                    -0.17302
                ],
                [
                    -0.00016,
                    -1.8334,
                    -4e-05
                ],
                [
                    -0.23161,
                    -0.0,
                    -3.81062
                ]
            ],
            [
                [
                    -1.66179,
                    0.0,
                    0.17302
                ],
                [
                    -0.00016,
                    -1.8334,
                    4e-05
                ],
                [
                    0.23161,
                    -0.0,
                    -3.81163
                ]
            ],
            [
                [
                    -1.66188,
                    0.0,
                    -0.1719
                ],
                [
                    0.00016,
                    -1.8334,
                    4e-05
                ],
                [
                    -0.23161,
                    -0.0,
                    -3.81163
                ]
            ],
            [
                [
                    -1.66188,
                    0.0,
                    0.1719
                ],
                [
                    0.00016,
                    -1.8334,
                    -4e-05
                ],
                [
                    0.23161,
                    -0.0,
                    -3.81062
                ]
            ],
            [
                [
                    -1.81812,
                    0.27511,
                    -0.10573
                ],
                [
                    0.46915,
                    -3.4992,
                    0.79497
                ],
                [
                    -0.17373,
                    1.06054,
                    -2.0723
                ]
            ],
            [
                [
                    -1.81812,
                    -0.27511,
                    0.10573
                ],
                [
                    -0.46984,
                    -3.49917,
                    0.79525
                ],
                [
                    0.17367,
                    1.06061,
                    -2.07248
                ]
            ],
            [
                [
                    -1.81812,
                    -0.27511,
                    -0.10573
                ],
                [
                    -0.46984,
                    -3.49917,
                    -0.79525
                ],
                [
                    -0.17373,
                    -1.06054,
                    -2.0723
                ]
            ],
            [
                [
                    -1.81812,
                    0.27511,
                    0.10573
                ],
                [
                    0.46915,
                    -3.4992,
                    -0.79497
                ],
                [
                    0.17367,
                    -1.06061,
                    -2.07248
                ]
            ],
            [
                [
                    -1.81859,
                    0.27325,
                    -0.10411
                ],
                [
                    0.46984,
                    -3.49917,
                    0.79525
                ],
                [
                    -0.17367,
                    1.06061,
                    -2.07248
                ]
            ],
            [
                [
                    -1.81859,
                    0.27325,
                    0.10411
                ],
                [
                    0.46984,
                    -3.49917,
                    -0.79525
                ],
                [
                    0.17373,
                    -1.06054,
                    -2.0723
                ]
            ],
            [
                [
                    -1.81859,
                    -0.27325,
                    0.10411
                ],
                [
                    -0.46915,
                    -3.4992,
                    0.79497
                ],
                [
                    0.17373,
                    1.06054,
                    -2.0723
                ]
            ],
            [
                [
                    -1.81859,
                    -0.27325,
                    -0.10411
                ],
                [
                    -0.46915,
                    -3.4992,
                    -0.79497
                ],
                [
                    -0.17367,
                    -1.06061,
                    -2.07248
                ]
            ],
            [
                [
                    -3.34371,
                    0.0,
                    -0.07407
                ],
                [
                    -0.00026,
                    -1.7202,
                    0.00072
                ],
                [
                    0.19943,
                    -0.0,
                    -1.29714
                ]
            ],
            [
                [
                    -3.34371,
                    0.0,
                    0.07407
                ],
                [
                    -0.00026,
                    -1.7202,
                    -0.00072
                ],
                [
                    -0.19994,
                    -0.0,
                    -1.2973
                ]
            ],
            [
                [
                    -3.34276,
                    0.0,
                    -0.07368
                ],
                [
                    0.00026,
                    -1.7202,
                    -0.00072
                ],
                [
                    0.19994,
                    -0.0,
                    -1.2973
                ]
            ],
            [
                [
                    -3.34276,
                    0.0,
                    0.07368
                ],
                [
                    0.00026,
                    -1.7202,
                    0.00072
                ],
                [
                    -0.19943,
                    -0.0,
                    -1.29714
                ]
            ]
        ]
    },
    "band_gap": 1.1814,
    "is_direct": false,
    "formula": "Sr3TaAs3O"
}