{
    "mp_id": "mp-17784",
    "nelements": 4,
    "nsites": 16,
    "elements": [
        "Ca",
        "Ge",
        "O",
        "Ti"
    ],
    "structure": {
        "@module": "pymatgen.core.structure",
        "@class": "Structure",
        "charge": null,
        "lattice": {
            "matrix": [
                [
                    3.34921645,
                    -4.46906685,
                    0.00028192
                ],
                [
                    3.34921645,
                    4.46906685,
                    0.00028192
                ],
                [
                    -2.89568829,
                    0.0,
                    6.58069445
                ]
            ],
            "a": 5.584783739608761,
            "b": 5.584783739608761,
            "c": 7.189614045072512,
            "alpha": 103.97452597523522,
            "beta": 103.97452597523522,
            "gamma": 106.30261529243651,
            "volume": 197.00528383082505
        },
        "sites": [
            {
                "species": [
                    {
                        "element": "Ca",
                        "occu": 1
                    }
                ],
                "abc": [
                    0.17369047,
                    0.82630953,
                    0.25
                ],
                "xyz": [
                    2.6252943775000004,
                    2.916598206724161,
                    1.6454555325
                ],
                "label": "Ca",
                "properties": {}
            },
            {
                "species": [
                    {
                        "element": "Ca",
                        "occu": 1
                    }
                ],
                "abc": [
                    0.82630953,
                    0.17369047,
                    0.75
                ],
                "xyz": [
                    1.1774502325,
                    -2.916598206724161,
                    4.9358027575
                ],
                "label": "Ca",
                "properties": {}
            },
            {
                "species": [
                    {
                        "element": "Ti",
                        "occu": 1
                    }
                ],
                "abc": [
                    0.5,
                    0.5,
                    0.0
                ],
                "xyz": [
                    3.34921645,
                    0.0,
                    0.00028192
                ],
                "label": "Ti",
                "properties": {}
            },
            {
                "species": [
                    {
                        "element": "Ti",
                        "occu": 1
                    }
                ],
                "abc": [
                    0.5,
                    0.5,
                    0.5
                ],
                "xyz": [
                    1.9013723050000002,
                    0.0,
                    3.290629145
                ],
                "label": "Ti",
                "properties": {}
            },
            {
                "species": [
                    {
                        "element": "Ge",
                        "occu": 1
                    }
                ],
                "abc": [
                    0.18170783,
                    0.81829217,
                    0.75
                ],
                "xyz": [
                    1.1774502324999996,
                    2.844937971123129,
                    4.9358027575
                ],
                "label": "Ge",
                "properties": {}
            },
            {
                "species": [
                    {
                        "element": "Ge",
                        "occu": 1
                    }
                ],
                "abc": [
                    0.81829217,
                    0.18170783,
                    0.25
                ],
                "xyz": [
                    2.6252943774999995,
                    -2.844937971123129,
                    1.6454555325
                ],
                "label": "Ge",
                "properties": {}
            },
            {
                "species": [
                    {
                        "element": "O",
                        "occu": 1
                    }
                ],
                "abc": [
                    0.81845402,
                    0.40160064,
                    0.10676479
                ],
                "xyz": [
                    3.777069584983848,
                    -1.8629456218684528,
                    0.7029304188181627
                ],
                "label": "O",
                "properties": {}
            },
            {
                "species": [
                    {
                        "element": "O",
                        "occu": 1
                    }
                ],
                "abc": [
                    0.59839936,
                    0.18154598,
                    0.39323521
                ],
                "xyz": [
                    1.4735191700161527,
                    -1.862945621868453,
                    2.5879806461818373
                ],
                "label": "O",
                "properties": {}
            },
            {
                "species": [
                    {
                        "element": "O",
                        "occu": 1
                    }
                ],
                "abc": [
                    0.18154598,
                    0.59839936,
                    0.89323521
                ],
                "xyz": [
                    0.02567502501615282,
                    1.862945621868453,
                    5.878327871181837
                ],
                "label": "O",
                "properties": {}
            },
            {
                "species": [
                    {
                        "element": "O",
                        "occu": 1
                    }
                ],
                "abc": [
                    0.40160064,
                    0.81845402,
                    0.60676479
                ],
                "xyz": [
                    2.3292254399838477,
                    1.8629456218684528,
                    3.993277643818163
                ],
                "label": "O",
                "properties": {}
            },
            {
                "species": [
                    {
                        "element": "O",
                        "occu": 1
                    }
                ],
                "abc": [
                    0.86748926,
                    0.75638837,
                    0.57432334
                ],
                "xyz": [
                    3.7756563008713253,
                    -0.4965173045044966,
                    3.7799042196249126
                ],
                "label": "O",
                "properties": {}
            },
            {
                "species": [
                    {
                        "element": "O",
                        "occu": 1
                    }
                ],
                "abc": [
                    0.24361163,
                    0.13251074,
                    0.92567666
                ],
                "xyz": [
                    -1.4207558358713248,
                    -0.4965173045044964,
                    6.091701295375088
                ],
                "label": "O",
                "properties": {}
            },
            {
                "species": [
                    {
                        "element": "O",
                        "occu": 1
                    }
                ],
                "abc": [
                    0.13251074,
                    0.24361163,
                    0.42567666
                ],
                "xyz": [
                    0.027088309128675325,
                    0.4965173045044964,
                    2.8013540703750874
                ],
                "label": "O",
                "properties": {}
            },
            {
                "species": [
                    {
                        "element": "O",
                        "occu": 1
                    }
                ],
                "abc": [
                    0.75638837,
                    0.86748926,
                    0.07432334
                ],
                "xyz": [
                    5.223500445871325,
                    0.4965173045044966,
                    0.4895569946249126
                ],
                "label": "O",
                "properties": {}
            },
            {
                "species": [
                    {
                        "element": "O",
                        "occu": 1
                    }
                ],
                "abc": [
                    0.57103674,
                    0.42896326,
                    0.75
                ],
                "xyz": [
                    1.1774502325,
                    -0.634935879732138,
                    4.9358027575
                ],
                "label": "O",
                "properties": {}
            },
            {
                "species": [
                    {
                        "element": "O",
                        "occu": 1
                    }
                ],
                "abc": [
                    0.42896326,
                    0.57103674,
                    0.25
                ],
                "xyz": [
                    2.6252943775000004,
                    0.634935879732138,
                    1.6454555325
                ],
                "label": "O",
                "properties": {}
            }
        ]
    },
    "spacegroup": {
        "source": "spglib",
        "symbol": "C2/c",
        "number": 15,
        "point_group": "2/m",
        "crystal_system": "monoclinic",
        "hall": "-C 2yc"
    },
    "dielectric": {
        "epsilon_ionic": [
            [
                14.59943196,
                0.0,
                -5.76074695
            ],
            [
                0.0,
                9.80445269,
                -0.0
            ],
            [
                -5.76074695,
                -0.0,
                23.2128163
            ]
        ],
        "epsilon_ionic_avg": 15.87223365,
        "epsilon_ionic_eig": [
            11.713502711555012,
            26.098745548444988,
            9.80445269
        ],
        "epsilon_electronic": [
            [
                4.45305917,
                0.0,
                -0.2501958
            ],
            [
                0.0,
                4.44809619,
                0.0
            ],
            [
                -0.25019489,
                0.0,
                5.2090097
            ]
        ],
        "epsilon_electronic_avg": 4.703388353333334,
        "epsilon_electronic_eig": [
            4.377754155690077,
            5.284314714309923,
            4.44809619
        ]
    },
    "phonon": {
        "lowest_freq": -0.03899173975201491,
        "frequency": [
            -0.03899173975201491,
            -0.030695923228695413,
            -0.021988588050149624,
            1.7693315859518246,
            3.118454459403037,
            3.456934629196934,
            4.081225556381075,
            4.39612882023881,
            4.503829341150952,
            4.608266642526942,
            5.577969952719425,
            5.7161824001028405,
            6.064766623337476,
            6.299035702762974,
            6.741648209636077,
            6.906459130528018,
            6.93382166001534,
            7.479233915615017,
            7.893165454352075,
            8.048691430675527,
            8.774147942091624,
            8.88919677840879,
            9.051067183755888,
            9.509449762391009,
            9.517244205755482,
            9.66181076989946,
            9.828366838175803,
            11.149033952793014,
            11.780509871303636,
            12.268722660176953,
            12.313601387392092,
            12.614285348911102,
            13.05248737175469,
            13.497321965895566,
            13.728473426305749,
            14.14365703548815,
            14.33686292500811,
            15.790510151089855,
            17.3034933246604,
            20.162795480663082,
            20.581376981388686,
            21.24139746254214,
            21.343348651144595,
            21.943300087573597,
            22.476527345257153,
            24.457107692774397,
            24.73306384262564,
            25.7210072811963
        ]
    },
    "born_effective_charge": {
        "avg_abs_trace": 3.061920625,
        "tensors": [
            [
                [
                    2.55986,
                    -5e-05,
                    0.18605
                ],
                [
                    0.0,
                    2.73077,
                    0.0
                ],
                [
                    0.17599,
                    0.00013,
                    2.23573
                ]
            ],
            [
                [
                    2.55986,
                    5e-05,
                    0.18605
                ],
                [
                    -0.0,
                    2.73097,
                    0.0
                ],
                [
                    0.17599,
                    -0.00013,
                    2.23573
                ]
            ],
            [
                [
                    5.65903,
                    -0.03231,
                    -1.41342
                ],
                [
                    0.50699,
                    4.88708,
                    0.07112
                ],
                [
                    -0.41281,
                    1.10139,
                    7.64293
                ]
            ],
            [
                [
                    5.65903,
                    0.03231,
                    -1.41342
                ],
                [
                    -0.50699,
                    4.88708,
                    -0.07112
                ],
                [
                    -0.41281,
                    -1.10139,
                    7.64293
                ]
            ],
            [
                [
                    3.42349,
                    -3e-05,
                    0.82745
                ],
                [
                    0.0,
                    4.07704,
                    0.0
                ],
                [
                    -0.28916,
                    1e-05,
                    3.52702
                ]
            ],
            [
                [
                    3.42349,
                    3e-05,
                    0.82745
                ],
                [
                    0.0,
                    4.07704,
                    0.0
                ],
                [
                    -0.28916,
                    -1e-05,
                    3.52702
                ]
            ],
            [
                [
                    -1.82842,
                    -0.26974,
                    0.14252
                ],
                [
                    -0.1309,
                    -2.82888,
                    0.74034
                ],
                [
                    0.12689,
                    0.77485,
                    -1.99144
                ]
            ],
            [
                [
                    -1.82825,
                    0.26994,
                    0.14243
                ],
                [
                    0.1309,
                    -2.82888,
                    -0.74034
                ],
                [
                    0.12667,
                    -0.77535,
                    -1.99151
                ]
            ],
            [
                [
                    -1.82825,
                    -0.26994,
                    0.14243
                ],
                [
                    -0.13109,
                    -2.8291,
                    0.74049
                ],
                [
                    0.12667,
                    0.77535,
                    -1.99151
                ]
            ],
            [
                [
                    -1.82842,
                    0.26974,
                    0.14252
                ],
                [
                    0.13109,
                    -2.8291,
                    -0.74049
                ],
                [
                    0.12689,
                    -0.77485,
                    -1.99144
                ]
            ],
            [
                [
                    -3.01925,
                    0.69317,
                    -0.88034
                ],
                [
                    0.80924,
                    -2.06126,
                    0.32857
                ],
                [
                    -0.81831,
                    0.42356,
                    -1.88626
                ]
            ],
            [
                [
                    -3.01905,
                    -0.69305,
                    -0.88032
                ],
                [
                    -0.80924,
                    -2.06126,
                    -0.32857
                ],
                [
                    -0.8188,
                    -0.4237,
                    -1.88636
                ]
            ],
            [
                [
                    -3.01905,
                    0.69305,
                    -0.88032
                ],
                [
                    0.80908,
                    -2.06142,
                    0.32843
                ],
                [
                    -0.8188,
                    0.4237,
                    -1.88636
                ]
            ],
            [
                [
                    -3.01925,
                    -0.69317,
                    -0.88034
                ],
                [
                    -0.80908,
                    -2.06142,
                    -0.32843
                ],
                [
                    -0.81831,
                    -0.42356,
                    -1.88626
                ]
            ],
            [
                [
                    -1.9474,
                    -0.0001,
                    1.87563
                ],
                [
                    0.0,
                    -1.91434,
                    0.0
                ],
                [
                    1.90953,
                    0.00022,
                    -5.65011
                ]
            ],
            [
                [
                    -1.9474,
                    0.0001,
                    1.87563
                ],
                [
                    0.0,
                    -1.91433,
                    0.0
                ],
                [
                    1.90953,
                    -0.00022,
                    -5.65011
                ]
            ]
        ]
    },
    "band_gap": 2.9276999999999997,
    "is_direct": false,
    "formula": "CaTiGeO5"
}