{
    "mp_id": "mp-1219605",
    "nelements": 4,
    "nsites": 26,
    "elements": [
        "Al",
        "O",
        "Rb",
        "Si"
    ],
    "structure": {
        "@module": "pymatgen.core.structure",
        "@class": "Structure",
        "charge": null,
        "lattice": {
            "matrix": [
                [
                    7.29885554,
                    0.00133426,
                    0.00362106
                ],
                [
                    -1.86877263,
                    7.51416326,
                    -0.00115253
                ],
                [
                    -1.99970908,
                    -3.55605526,
                    6.90348607
                ]
            ],
            "a": 7.298856560182147,
            "b": 7.743058954243882,
            "c": 8.018883047874695,
            "alpha": 111.73367749952472,
            "beta": 104.42005734187639,
            "gamma": 103.95564916552829,
            "volume": 378.68603505714105
        },
        "sites": [
            {
                "species": [
                    {
                        "element": "Rb",
                        "occu": 1
                    }
                ],
                "abc": [
                    0.13840202,
                    0.29505338,
                    0.28407274
                ],
                "xyz": [
                    -0.10927416806727785,
                    1.207085570714412,
                    1.9612533076032213
                ],
                "label": "Rb",
                "properties": {}
            },
            {
                "species": [
                    {
                        "element": "Rb",
                        "occu": 1
                    }
                ],
                "abc": [
                    0.86159798,
                    0.70494662,
                    0.71592726
                ],
                "xyz": [
                    3.539647998067278,
                    2.752356689285589,
                    4.944701292396777
                ],
                "label": "Rb",
                "properties": {}
            },
            {
                "species": [
                    {
                        "element": "Al",
                        "occu": 1
                    }
                ],
                "abc": [
                    0.21745976,
                    0.82011786,
                    0.20321008
                ],
                "xyz": [
                    -0.35176747826262783,
                    5.440163366472181,
                    1.4027001809649453
                ],
                "label": "Al",
                "properties": {}
            },
            {
                "species": [
                    {
                        "element": "Al",
                        "occu": 1
                    }
                ],
                "abc": [
                    0.78254024,
                    0.17988214,
                    0.79678992
                ],
                "xyz": [
                    3.7821413082626276,
                    -1.4807211064721804,
                    5.503254419035055
                ],
                "label": "Al",
                "properties": {}
            },
            {
                "species": [
                    {
                        "element": "Si",
                        "occu": 1
                    }
                ],
                "abc": [
                    0.23269226,
                    0.19712536,
                    0.82798443
                ],
                "xyz": [
                    -0.3257232692004004,
                    -1.4628157777985002,
                    5.716594378425725
                ],
                "label": "Si",
                "properties": {}
            },
            {
                "species": [
                    {
                        "element": "Si",
                        "occu": 1
                    }
                ],
                "abc": [
                    0.76730774,
                    0.80287464,
                    0.17201557
                ],
                "xyz": [
                    3.756097099200401,
                    5.4222580377985,
                    1.1893602215742751
                ],
                "label": "Si",
                "properties": {}
            },
            {
                "species": [
                    {
                        "element": "Si",
                        "occu": 1
                    }
                ],
                "abc": [
                    0.34127215,
                    0.59905095,
                    0.84276165
                ],
                "xyz": [
                    -0.3138720204410692,
                    1.5049149867281777,
                    5.818538653845291
                ],
                "label": "Si",
                "properties": {}
            },
            {
                "species": [
                    {
                        "element": "Si",
                        "occu": 1
                    }
                ],
                "abc": [
                    0.35177232,
                    0.83266674,
                    0.60152694
                ],
                "xyz": [
                    -0.19140835075528817,
                    4.118200142248952,
                    4.1529469662989325
                ],
                "label": "Si",
                "properties": {}
            },
            {
                "species": [
                    {
                        "element": "Si",
                        "occu": 1
                    }
                ],
                "abc": [
                    0.65872785,
                    0.40094905,
                    0.15723835
                ],
                "xyz": [
                    3.7442458504410703,
                    2.454527273271823,
                    1.087415946154709
                ],
                "label": "Si",
                "properties": {}
            },
            {
                "species": [
                    {
                        "element": "Si",
                        "occu": 1
                    }
                ],
                "abc": [
                    0.64822768,
                    0.16733326,
                    0.39847306
                ],
                "xyz": [
                    3.6217821807552895,
                    -0.15875788224895104,
                    2.753007633701067
                ],
                "label": "Si",
                "properties": {}
            },
            {
                "species": [
                    {
                        "element": "O",
                        "occu": 1
                    }
                ],
                "abc": [
                    0.2826445,
                    0.65142046,
                    0.66155501
                ],
                "xyz": [
                    -0.47729291201097035,
                    2.5427306355050163,
                    4.567308487144117
                ],
                "label": "O",
                "properties": {}
            },
            {
                "species": [
                    {
                        "element": "O",
                        "occu": 1
                    }
                ],
                "abc": [
                    0.7173555,
                    0.34857954,
                    0.33844499
                ],
                "xyz": [
                    3.9076667420109708,
                    1.416711624494983,
                    2.338646112855883
                ],
                "label": "O",
                "properties": {}
            },
            {
                "species": [
                    {
                        "element": "O",
                        "occu": 1
                    }
                ],
                "abc": [
                    0.40409244,
                    0.06006668,
                    0.30552224
                ],
                "xyz": [
                    2.22620577933721,
                    -0.6345639642138112,
                    2.1105625422352827
                ],
                "label": "O",
                "properties": {}
            },
            {
                "species": [
                    {
                        "element": "O",
                        "occu": 1
                    }
                ],
                "abc": [
                    0.4107017,
                    0.29745675,
                    0.04457018
                ],
                "xyz": [
                    2.352645951680431,
                    2.0771925421111006,
                    0.3088339644371171
                ],
                "label": "O",
                "properties": {}
            },
            {
                "species": [
                    {
                        "element": "O",
                        "occu": 1
                    }
                ],
                "abc": [
                    0.59590756,
                    0.93993332,
                    0.69447776
                ],
                "xyz": [
                    1.2041680506627899,
                    4.59400622421381,
                    4.795392057764717
                ],
                "label": "O",
                "properties": {}
            },
            {
                "species": [
                    {
                        "element": "O",
                        "occu": 1
                    }
                ],
                "abc": [
                    0.5892983,
                    0.70254325,
                    0.95542982
                ],
                "xyz": [
                    1.0777278783195696,
                    1.8822497178888993,
                    6.597120635562883
                ],
                "label": "O",
                "properties": {}
            },
            {
                "species": [
                    {
                        "element": "O",
                        "occu": 1
                    }
                ],
                "abc": [
                    0.25426551,
                    0.7220999,
                    0.36790311
                ],
                "xyz": [
                    -0.22929249257855044,
                    4.1180320054431885,
                    2.539902463864571
                ],
                "label": "O",
                "properties": {}
            },
            {
                "species": [
                    {
                        "element": "O",
                        "occu": 1
                    }
                ],
                "abc": [
                    0.27353302,
                    0.35436147,
                    0.73709512
                ],
                "xyz": [
                    -0.13971882215032494,
                    0.04194392420452653,
                    5.08910796043736
                ],
                "label": "O",
                "properties": {}
            },
            {
                "species": [
                    {
                        "element": "O",
                        "occu": 1
                    }
                ],
                "abc": [
                    0.74573449,
                    0.2779001,
                    0.63209689
                ],
                "xyz": [
                    3.659666322578551,
                    -0.15858974544318816,
                    4.366052136135429
                ],
                "label": "O",
                "properties": {}
            },
            {
                "species": [
                    {
                        "element": "O",
                        "occu": 1
                    }
                ],
                "abc": [
                    0.72646698,
                    0.64563853,
                    0.26290488
                ],
                "xyz": [
                    3.570092652150324,
                    3.9174983357954742,
                    1.8168466395626395
                ],
                "label": "O",
                "properties": {}
            },
            {
                "species": [
                    {
                        "element": "O",
                        "occu": 1
                    }
                ],
                "abc": [
                    0.22137105,
                    0.6674588,
                    0.98139641
                ],
                "xyz": [
                    -1.5940807345609296,
                    1.525789893135245,
                    6.775088777146557
                ],
                "label": "O",
                "properties": {}
            },
            {
                "species": [
                    {
                        "element": "O",
                        "occu": 1
                    }
                ],
                "abc": [
                    0.24085996,
                    0.98789395,
                    0.68629905
                ],
                "xyz": [
                    -1.4605455635727842,
                    4.983000446991004,
                    4.737589522481797
                ],
                "label": "O",
                "properties": {}
            },
            {
                "species": [
                    {
                        "element": "O",
                        "occu": 1
                    }
                ],
                "abc": [
                    0.77862895,
                    0.3325412,
                    0.01860359
                ],
                "xyz": [
                    5.024454564560929,
                    2.4336523668647554,
                    0.13086582285344228
                ],
                "label": "O",
                "properties": {}
            },
            {
                "species": [
                    {
                        "element": "O",
                        "occu": 1
                    }
                ],
                "abc": [
                    0.75914004,
                    0.01210605,
                    0.31370095
                ],
                "xyz": [
                    4.890919393572784,
                    -1.0235581869910035,
                    2.168365077518202
                ],
                "label": "O",
                "properties": {}
            },
            {
                "species": [
                    {
                        "element": "O",
                        "occu": 1
                    }
                ],
                "abc": [
                    0.98283776,
                    0.85054811,
                    0.147605
                ],
                "xyz": [
                    5.288942742277561,
                    5.867577183481797,
                    1.021567693648357
                ],
                "label": "O",
                "properties": {}
            },
            {
                "species": [
                    {
                        "element": "O",
                        "occu": 1
                    }
                ],
                "abc": [
                    0.01716224,
                    0.14945189,
                    0.852395
                ],
                "xyz": [
                    -1.858568912277561,
                    -1.908134923481796,
                    5.884386906351642
                ],
                "label": "O",
                "properties": {}
            }
        ]
    },
    "spacegroup": {
        "source": "spglib",
        "symbol": "P-1",
        "number": 2,
        "point_group": "-1",
        "crystal_system": "triclinic",
        "hall": "-P 1"
    },
    "dielectric": {
        "epsilon_ionic": [
            [
                3.12149971,
                0.03471083,
                0.01789493
            ],
            [
                0.03471083,
                2.88906562,
                -0.28882556
            ],
            [
                0.01789493,
                -0.28882556,
                2.63887708
            ]
        ],
        "epsilon_ionic_avg": 2.8831474699999977,
        "epsilon_ionic_eig": [
            2.4475017074083976,
            3.1303347961550214,
            3.0716059064365746
        ],
        "epsilon_electronic": [
            [
                2.43597421,
                -0.0023562,
                0.0034712
            ],
            [
                -0.00235595,
                2.44855411,
                -5.53e-06
            ],
            [
                0.00347191,
                -6.46e-06,
                2.41998522
            ]
        ],
        "epsilon_electronic_avg": 2.4348378466666674,
        "epsilon_electronic_eig": [
            2.4192562735000473,
            2.4362625031442717,
            2.448994763355683
        ]
    },
    "phonon": {
        "lowest_freq": -0.10724112605945464,
        "frequency": [
            -0.10724112605945464,
            -0.06583588566816385,
            -0.05168629527671955,
            1.7877392900242848,
            1.9201228573637028,
            2.0940634247116705,
            2.1357026352897956,
            2.2951156105878674,
            2.426471031690337,
            2.5820066413950893,
            2.7181192711027253,
            2.9779540987887323,
            3.2877975361840615,
            3.3990686336472367,
            3.514288372581621,
            4.194363248400378,
            4.30360059233093,
            4.606059891522507,
            5.286927383219314,
            5.719351994512693,
            6.277719601298061,
            6.865143615634801,
            7.069615181142981,
            7.43948407692351,
            7.581849289979267,
            7.949353259734264,
            8.206937021343382,
            8.512463071965465,
            8.527946394851087,
            9.286427872422166,
            9.451694820727223,
            9.985824340565902,
            10.053365923970695,
            10.363551442105464,
            10.371123120626287,
            10.853230437576947,
            11.47629747299111,
            11.53056074471267,
            11.739258703042518,
            11.78064341346322,
            11.892782424172859,
            12.442696267262454,
            12.786590659205203,
            13.25226086415535,
            13.623130727237534,
            13.734519534518542,
            14.618594429806073,
            15.51380607490532,
            16.267907319920823,
            17.061833999743826,
            17.739310582687217,
            18.27396886029613,
            18.789414503919552,
            19.04639976480228,
            20.824919619549352,
            20.932220381652428,
            21.217360011954273,
            21.638844775407094,
            22.184732325775958,
            22.345538019141976,
            22.653705910466474,
            23.62901350999086,
            29.24989011926186,
            29.271586097573323,
            29.55377939279785,
            29.764558821953756,
            30.465641217217854,
            30.602129645734006,
            30.667768163283643,
            31.095722912040326,
            31.153596906611817,
            32.2437363111001,
            32.26651809448994,
            32.617657649830456,
            33.037643917708515,
            33.291811859719026,
            33.37527391880094,
            33.63985944646248
        ]
    },
    "born_effective_charge": {
        "avg_abs_trace": 2.045492051282051,
        "tensors": [
            [
                [
                    1.22476,
                    -0.05161,
                    -0.03985
                ],
                [
                    -0.05003,
                    1.31137,
                    0.004
                ],
                [
                    -0.03553,
                    0.02365,
                    1.24852
                ]
            ],
            [
                [
                    1.22479,
                    -0.05161,
                    -0.03983
                ],
                [
                    -0.05001,
                    1.3114,
                    0.00402
                ],
                [
                    -0.03549,
                    0.02373,
                    1.24851
                ]
            ],
            [
                [
                    2.89904,
                    0.11248,
                    -0.03814
                ],
                [
                    0.12555,
                    2.29902,
                    0.0613
                ],
                [
                    0.00487,
                    -0.12447,
                    2.77273
                ]
            ],
            [
                [
                    2.89903,
                    0.1125,
                    -0.03814
                ],
                [
                    0.12555,
                    2.29906,
                    0.06129
                ],
                [
                    0.00489,
                    -0.1245,
                    2.77276
                ]
            ],
            [
                [
                    3.37276,
                    -0.18711,
                    0.07719
                ],
                [
                    -0.04536,
                    3.26937,
                    0.19083
                ],
                [
                    0.08613,
                    0.39213,
                    2.82489
                ]
            ],
            [
                [
                    3.3728,
                    -0.18711,
                    0.07719
                ],
                [
                    -0.04545,
                    3.26928,
                    0.19081
                ],
                [
                    0.08611,
                    0.39209,
                    2.82489
                ]
            ],
            [
                [
                    2.94406,
                    0.07392,
                    0.02057
                ],
                [
                    -0.13124,
                    3.35189,
                    -0.19084
                ],
                [
                    0.14211,
                    -0.13279,
                    3.0516
                ]
            ],
            [
                [
                    2.89939,
                    -0.01745,
                    0.02569
                ],
                [
                    0.03552,
                    3.25173,
                    -0.05168
                ],
                [
                    -0.17882,
                    -0.17925,
                    3.16601
                ]
            ],
            [
                [
                    2.94408,
                    0.0739,
                    0.02061
                ],
                [
                    -0.13112,
                    3.35189,
                    -0.19094
                ],
                [
                    0.1421,
                    -0.1328,
                    3.05147
                ]
            ],
            [
                [
                    2.8994,
                    -0.01746,
                    0.02575
                ],
                [
                    0.03564,
                    3.25177,
                    -0.05165
                ],
                [
                    -0.17876,
                    -0.17927,
                    3.16593
                ]
            ],
            [
                [
                    -1.04969,
                    -0.06511,
                    -0.01061
                ],
                [
                    -0.09067,
                    -2.38435,
                    0.75647
                ],
                [
                    0.03241,
                    0.7198,
                    -1.71234
                ]
            ],
            [
                [
                    -1.04978,
                    -0.06508,
                    -0.01058
                ],
                [
                    -0.09072,
                    -2.3842,
                    0.7566
                ],
                [
                    0.03226,
                    0.71997,
                    -1.71232
                ]
            ],
            [
                [
                    -1.89544,
                    -0.41713,
                    -0.39547
                ],
                [
                    -0.41334,
                    -1.63654,
                    -0.25362
                ],
                [
                    -0.28746,
                    -0.16339,
                    -1.33864
                ]
            ],
            [
                [
                    -1.90632,
                    -0.14489,
                    -0.71211
                ],
                [
                    -0.11642,
                    -1.14586,
                    -0.0198
                ],
                [
                    -0.73623,
                    -0.07794,
                    -1.90779
                ]
            ],
            [
                [
                    -1.89539,
                    -0.4172,
                    -0.39533
                ],
                [
                    -0.41316,
                    -1.63664,
                    -0.25362
                ],
                [
                    -0.28729,
                    -0.16343,
                    -1.33863
                ]
            ],
            [
                [
                    -1.90637,
                    -0.1449,
                    -0.71208
                ],
                [
                    -0.11641,
                    -1.14576,
                    -0.01972
                ],
                [
                    -0.73607,
                    -0.07786,
                    -1.9077
                ]
            ],
            [
                [
                    -1.10336,
                    -0.02724,
                    -0.04884
                ],
                [
                    -0.02096,
                    -1.50895,
                    0.28592
                ],
                [
                    -0.05679,
                    0.34831,
                    -2.27106
                ]
            ],
            [
                [
                    -1.05576,
                    0.03909,
                    0.0037
                ],
                [
                    0.02706,
                    -2.59833,
                    -0.0386
                ],
                [
                    0.00899,
                    -0.08766,
                    -1.23476
                ]
            ],
            [
                [
                    -1.10336,
                    -0.02728,
                    -0.0488
                ],
                [
                    -0.02092,
                    -1.50895,
                    0.28619
                ],
                [
                    -0.05688,
                    0.34845,
                    -2.27095
                ]
            ],
            [
                [
                    -1.05579,
                    0.03904,
                    0.00365
                ],
                [
                    0.02708,
                    -2.59845,
                    -0.03855
                ],
                [
                    0.00906,
                    -0.08789,
                    -1.23483
                ]
            ],
            [
                [
                    -1.85821,
                    0.10746,
                    0.62212
                ],
                [
                    0.12147,
                    -1.17586,
                    -0.12804
                ],
                [
                    0.56272,
                    -0.12563,
                    -1.9072
                ]
            ],
            [
                [
                    -1.89607,
                    0.66274,
                    0.55666
                ],
                [
                    0.68748,
                    -1.75458,
                    -0.62426
                ],
                [
                    0.57557,
                    -0.59202,
                    -1.49896
                ]
            ],
            [
                [
                    -1.85828,
                    0.10746,
                    0.6221
                ],
                [
                    0.1209,
                    -1.17606,
                    -0.12781
                ],
                [
                    0.56251,
                    -0.12571,
                    -1.90719
                ]
            ],
            [
                [
                    -1.89612,
                    0.66277,
                    0.55666
                ],
                [
                    0.68751,
                    -1.75469,
                    -0.62423
                ],
                [
                    0.57556,
                    -0.59215,
                    -1.49877
                ]
            ],
            [
                [
                    -2.57511,
                    -0.0851,
                    -0.06101
                ],
                [
                    -0.12902,
                    -1.27867,
                    0.00794
                ],
                [
                    -0.11804,
                    -0.00063,
                    -1.19309
                ]
            ],
            [
                [
                    -2.57506,
                    -0.08507,
                    -0.06111
                ],
                [
                    -0.12892,
                    -1.27888,
                    0.00799
                ],
                [
                    -0.11793,
                    -0.00072,
                    -1.19307
                ]
            ]
        ]
    },
    "band_gap": 4.9376999999999995,
    "is_direct": false,
    "formula": "RbAlSi3O8"
}