{
    "mp_id": "mp-17621",
    "nelements": 3,
    "nsites": 24,
    "elements": [
        "Cs",
        "O",
        "Re"
    ],
    "structure": {
        "@module": "pymatgen.core.structure",
        "@class": "Structure",
        "charge": null,
        "lattice": {
            "matrix": [
                [
                    5.72657274,
                    0.0,
                    0.0
                ],
                [
                    0.0,
                    5.99875025,
                    0.0
                ],
                [
                    0.0,
                    0.0,
                    14.23905431
                ]
            ],
            "a": 5.72657274,
            "b": 5.99875025,
            "c": 14.23905431,
            "alpha": 90.0,
            "beta": 90.0,
            "gamma": 90.0,
            "volume": 489.14397569007934
        },
        "sites": [
            {
                "species": [
                    {
                        "element": "Cs",
                        "occu": 1
                    }
                ],
                "abc": [
                    0.47566286,
                    0.25,
                    0.62909071
                ],
                "xyz": [
                    2.7239179675064364,
                    1.4996875625,
                    8.957656785606462
                ],
                "label": "Cs",
                "properties": {}
            },
            {
                "species": [
                    {
                        "element": "Cs",
                        "occu": 1
                    }
                ],
                "abc": [
                    0.97566286,
                    0.25,
                    0.87090929
                ],
                "xyz": [
                    5.587204337506437,
                    1.4996875625,
                    12.400924679393539
                ],
                "label": "Cs",
                "properties": {}
            },
            {
                "species": [
                    {
                        "element": "Cs",
                        "occu": 1
                    }
                ],
                "abc": [
                    0.52433714,
                    0.75,
                    0.37090929
                ],
                "xyz": [
                    3.0026547724935635,
                    4.4990626874999995,
                    5.28139752439354
                ],
                "label": "Cs",
                "properties": {}
            },
            {
                "species": [
                    {
                        "element": "Cs",
                        "occu": 1
                    }
                ],
                "abc": [
                    0.02433714,
                    0.75,
                    0.12909071
                ],
                "xyz": [
                    0.1393684024935636,
                    4.4990626874999995,
                    1.83812963060646
                ],
                "label": "Cs",
                "properties": {}
            },
            {
                "species": [
                    {
                        "element": "Re",
                        "occu": 1
                    }
                ],
                "abc": [
                    0.45824326,
                    0.75,
                    0.88266299
                ],
                "xyz": [
                    2.624163361004732,
                    4.4990626874999995,
                    12.568286252036987
                ],
                "label": "Re",
                "properties": {}
            },
            {
                "species": [
                    {
                        "element": "Re",
                        "occu": 1
                    }
                ],
                "abc": [
                    0.95824326,
                    0.75,
                    0.61733701
                ],
                "xyz": [
                    5.487449731004733,
                    4.4990626874999995,
                    8.790295212963013
                ],
                "label": "Re",
                "properties": {}
            },
            {
                "species": [
                    {
                        "element": "Re",
                        "occu": 1
                    }
                ],
                "abc": [
                    0.54175674,
                    0.25,
                    0.11733701
                ],
                "xyz": [
                    3.1024093789952674,
                    1.4996875625,
                    1.6707680579630133
                ],
                "label": "Re",
                "properties": {}
            },
            {
                "species": [
                    {
                        "element": "Re",
                        "occu": 1
                    }
                ],
                "abc": [
                    0.04175674,
                    0.25,
                    0.38266299
                ],
                "xyz": [
                    0.2391230089952676,
                    1.4996875625,
                    5.448759097036986
                ],
                "label": "Re",
                "properties": {}
            },
            {
                "species": [
                    {
                        "element": "O",
                        "occu": 1
                    }
                ],
                "abc": [
                    0.51794398,
                    0.5123419,
                    0.81592833
                ],
                "xyz": [
                    2.966043876715105,
                    3.0734111007104747,
                    11.618047803937602
                ],
                "label": "O",
                "properties": {}
            },
            {
                "species": [
                    {
                        "element": "O",
                        "occu": 1
                    }
                ],
                "abc": [
                    0.01794398,
                    0.9876581,
                    0.68407167
                ],
                "xyz": [
                    0.10275750671510521,
                    5.924714274289524,
                    9.740533661062399
                ],
                "label": "O",
                "properties": {}
            },
            {
                "species": [
                    {
                        "element": "O",
                        "occu": 1
                    }
                ],
                "abc": [
                    0.48205602,
                    0.0123419,
                    0.18407167
                ],
                "xyz": [
                    2.7605288632848946,
                    0.07403597571047499,
                    2.6210065060623977
                ],
                "label": "O",
                "properties": {}
            },
            {
                "species": [
                    {
                        "element": "O",
                        "occu": 1
                    }
                ],
                "abc": [
                    0.98205602,
                    0.4876581,
                    0.31592833
                ],
                "xyz": [
                    5.623815233284895,
                    2.925339149289525,
                    4.498520648937602
                ],
                "label": "O",
                "properties": {}
            },
            {
                "species": [
                    {
                        "element": "O",
                        "occu": 1
                    }
                ],
                "abc": [
                    0.48205602,
                    0.4876581,
                    0.18407167
                ],
                "xyz": [
                    2.7605288632848946,
                    2.925339149289525,
                    2.6210065060623977
                ],
                "label": "O",
                "properties": {}
            },
            {
                "species": [
                    {
                        "element": "O",
                        "occu": 1
                    }
                ],
                "abc": [
                    0.98205602,
                    0.0123419,
                    0.31592833
                ],
                "xyz": [
                    5.623815233284895,
                    0.07403597571047499,
                    4.498520648937602
                ],
                "label": "O",
                "properties": {}
            },
            {
                "species": [
                    {
                        "element": "O",
                        "occu": 1
                    }
                ],
                "abc": [
                    0.51794398,
                    0.9876581,
                    0.81592833
                ],
                "xyz": [
                    2.966043876715105,
                    5.924714274289524,
                    11.618047803937602
                ],
                "label": "O",
                "properties": {}
            },
            {
                "species": [
                    {
                        "element": "O",
                        "occu": 1
                    }
                ],
                "abc": [
                    0.01794398,
                    0.5123419,
                    0.68407167
                ],
                "xyz": [
                    0.10275750671510521,
                    3.0734111007104747,
                    9.740533661062399
                ],
                "label": "O",
                "properties": {}
            },
            {
                "species": [
                    {
                        "element": "O",
                        "occu": 1
                    }
                ],
                "abc": [
                    0.83698641,
                    0.25,
                    0.08489859
                ],
                "xyz": [
                    4.793063559256463,
                    1.4996875625,
                    1.208875633852423
                ],
                "label": "O",
                "properties": {}
            },
            {
                "species": [
                    {
                        "element": "O",
                        "occu": 1
                    }
                ],
                "abc": [
                    0.33698641,
                    0.25,
                    0.41510141
                ],
                "xyz": [
                    1.9297771892564635,
                    1.4996875625,
                    5.910651521147577
                ],
                "label": "O",
                "properties": {}
            },
            {
                "species": [
                    {
                        "element": "O",
                        "occu": 1
                    }
                ],
                "abc": [
                    0.16301359,
                    0.75,
                    0.91510141
                ],
                "xyz": [
                    0.9335091807435366,
                    4.4990626874999995,
                    13.030178676147578
                ],
                "label": "O",
                "properties": {}
            },
            {
                "species": [
                    {
                        "element": "O",
                        "occu": 1
                    }
                ],
                "abc": [
                    0.66301359,
                    0.75,
                    0.58489859
                ],
                "xyz": [
                    3.796795550743537,
                    4.4990626874999995,
                    8.328402788852422
                ],
                "label": "O",
                "properties": {}
            },
            {
                "species": [
                    {
                        "element": "O",
                        "occu": 1
                    }
                ],
                "abc": [
                    0.86654288,
                    0.25,
                    0.48298254
                ],
                "xyz": [
                    4.962320834649091,
                    1.4996875625,
                    6.877214617841748
                ],
                "label": "O",
                "properties": {}
            },
            {
                "species": [
                    {
                        "element": "O",
                        "occu": 1
                    }
                ],
                "abc": [
                    0.36654288,
                    0.25,
                    0.01701746
                ],
                "xyz": [
                    2.0990344646490913,
                    1.4996875625,
                    0.24231253715825263
                ],
                "label": "O",
                "properties": {}
            },
            {
                "species": [
                    {
                        "element": "O",
                        "occu": 1
                    }
                ],
                "abc": [
                    0.13345712,
                    0.75,
                    0.51701746
                ],
                "xyz": [
                    0.7642519053509088,
                    4.4990626874999995,
                    7.361839692158253
                ],
                "label": "O",
                "properties": {}
            },
            {
                "species": [
                    {
                        "element": "O",
                        "occu": 1
                    }
                ],
                "abc": [
                    0.63345712,
                    0.75,
                    0.98298254
                ],
                "xyz": [
                    3.6275382753509087,
                    4.4990626874999995,
                    13.996741772841746
                ],
                "label": "O",
                "properties": {}
            }
        ]
    },
    "spacegroup": {
        "source": "spglib",
        "symbol": "Pnma",
        "number": 62,
        "point_group": "mmm",
        "crystal_system": "orthorhombic",
        "hall": "-P 2ac 2n"
    },
    "dielectric": {
        "epsilon_ionic": [
            [
                2.8288026,
                -2.5e-07,
                -7.5e-07
            ],
            [
                -2.5e-07,
                3.3224849,
                -6.7e-07
            ],
            [
                -7.5e-07,
                -6.7e-07,
                2.7888807
            ]
        ],
        "epsilon_ionic_avg": 2.9800560666666667,
        "epsilon_ionic_eig": [
            2.8288026000139648,
            2.7888806999850684,
            3.3224849000009673
        ],
        "epsilon_electronic": [
            [
                2.7417444,
                0.0,
                0.0
            ],
            [
                -0.0,
                2.78573223,
                0.0
            ],
            [
                0.0,
                0.0,
                2.74888533
            ]
        ],
        "epsilon_electronic_avg": 2.7587873199999997,
        "epsilon_electronic_eig": [
            2.7417444,
            2.78573223,
            2.74888533
        ]
    },
    "phonon": {
        "lowest_freq": -0.27547176314038463,
        "frequency": [
            -0.27547176314038463,
            -0.24214244382586914,
            -0.08619684290585265,
            0.3912654761917739,
            0.602378044519543,
            0.7952236032355807,
            0.9152678508344981,
            1.1887915972603598,
            1.2387195600324699,
            1.2893291715163875,
            1.3812406535220918,
            1.476744129763965,
            1.6266476122888285,
            1.6317133502428818,
            1.705764575426431,
            1.7232782241975866,
            1.759027865821692,
            1.7833299892923231,
            1.8708857616747583,
            1.8960312418766665,
            2.2215194155388804,
            2.2938338458661667,
            2.317389717412892,
            2.360134170339759,
            2.4622091875512626,
            2.5599515747266635,
            2.6740807443767167,
            2.678544543795106,
            2.69587587788136,
            2.7586258837243847,
            2.857901541717002,
            2.979694774970942,
            3.078792668309769,
            3.122784350547193,
            3.3536818449750943,
            3.41515730801931,
            8.977593582812641,
            9.082396194108332,
            9.263616488270353,
            9.292387590476414,
            9.359542687139983,
            9.574093441198922,
            9.636330856427225,
            9.67706475241202,
            9.677123206334798,
            9.710742751751127,
            9.715344564366118,
            9.791415282966188,
            9.79301178601951,
            9.856992046398725,
            9.912555592250396,
            9.991609036625743,
            10.021573699237875,
            10.033588302896769,
            10.195519891281256,
            10.209804178369398,
            27.001604605235904,
            27.04832537957612,
            27.078307144725077,
            27.084117975989372,
            27.10442276612761,
            27.106893126675203,
            27.470699796731584,
            27.491757199577272,
            27.5978734402503,
            27.790680218640397,
            28.09337623681142,
            28.558723500733883,
            29.008801173438403,
            29.030699975569718,
            29.03298955538391,
            29.053469296569762
        ]
    },
    "born_effective_charge": {
        "avg_abs_trace": 1.4656575,
        "tensors": [
            [
                [
                    1.45875,
                    -0.0,
                    -0.06223
                ],
                [
                    8e-05,
                    1.48165,
                    2e-05
                ],
                [
                    -0.07161,
                    0.0,
                    1.48824
                ]
            ],
            [
                [
                    1.45875,
                    -0.0,
                    0.06223
                ],
                [
                    8e-05,
                    1.48165,
                    -2e-05
                ],
                [
                    0.07154,
                    0.0,
                    1.48824
                ]
            ],
            [
                [
                    1.45876,
                    -0.0,
                    -0.06235
                ],
                [
                    -8e-05,
                    1.48165,
                    -2e-05
                ],
                [
                    -0.07154,
                    0.0,
                    1.48824
                ]
            ],
            [
                [
                    1.45876,
                    -0.0,
                    0.06235
                ],
                [
                    -8e-05,
                    1.48165,
                    2e-05
                ],
                [
                    0.07161,
                    0.0,
                    1.48824
                ]
            ],
            [
                [
                    2.85564,
                    -0.0,
                    -0.02063
                ],
                [
                    0.00463,
                    2.96786,
                    -0.00778
                ],
                [
                    -0.03881,
                    0.0,
                    2.94032
                ]
            ],
            [
                [
                    2.85564,
                    -0.0,
                    0.02063
                ],
                [
                    0.00463,
                    2.96786,
                    0.00778
                ],
                [
                    0.0373,
                    0.0,
                    2.94018
                ]
            ],
            [
                [
                    2.85269,
                    -0.0,
                    -0.02664
                ],
                [
                    -0.00463,
                    2.96786,
                    0.00778
                ],
                [
                    -0.0373,
                    0.0,
                    2.94018
                ]
            ],
            [
                [
                    2.85269,
                    -0.0,
                    0.02664
                ],
                [
                    -0.00463,
                    2.96786,
                    -0.00778
                ],
                [
                    0.03881,
                    0.0,
                    2.94032
                ]
            ],
            [
                [
                    -0.60545,
                    0.29972,
                    0.16821
                ],
                [
                    0.31306,
                    -1.63966,
                    -0.77443
                ],
                [
                    0.18195,
                    -0.73517,
                    -1.0767
                ]
            ],
            [
                [
                    -0.60545,
                    -0.29972,
                    -0.16821
                ],
                [
                    -0.3141,
                    -1.65137,
                    -0.77885
                ],
                [
                    -0.18177,
                    -0.73503,
                    -1.07655
                ]
            ],
            [
                [
                    -0.60617,
                    -0.30211,
                    0.17079
                ],
                [
                    -0.31306,
                    -1.63966,
                    0.77443
                ],
                [
                    0.18177,
                    0.73503,
                    -1.07655
                ]
            ],
            [
                [
                    -0.60617,
                    0.30211,
                    -0.17079
                ],
                [
                    0.3141,
                    -1.65137,
                    0.77885
                ],
                [
                    -0.18195,
                    0.73517,
                    -1.0767
                ]
            ],
            [
                [
                    -0.60617,
                    0.30211,
                    0.17079
                ],
                [
                    0.3141,
                    -1.65137,
                    -0.77885
                ],
                [
                    0.18177,
                    -0.73503,
                    -1.07655
                ]
            ],
            [
                [
                    -0.60617,
                    -0.30211,
                    -0.17079
                ],
                [
                    -0.31306,
                    -1.63966,
                    -0.77443
                ],
                [
                    -0.18195,
                    -0.73517,
                    -1.0767
                ]
            ],
            [
                [
                    -0.60545,
                    -0.29972,
                    0.16821
                ],
                [
                    -0.3141,
                    -1.65137,
                    0.77885
                ],
                [
                    0.18195,
                    0.73517,
                    -1.0767
                ]
            ],
            [
                [
                    -0.60545,
                    0.29972,
                    -0.16821
                ],
                [
                    0.31306,
                    -1.63966,
                    0.77443
                ],
                [
                    -0.18177,
                    0.73503,
                    -1.07655
                ]
            ],
            [
                [
                    -2.06221,
                    -0.0,
                    0.47726
                ],
                [
                    0.0078,
                    -0.60645,
                    -0.00243
                ],
                [
                    0.38883,
                    0.0,
                    -0.6902
                ]
            ],
            [
                [
                    -2.06221,
                    -0.0,
                    -0.47726
                ],
                [
                    0.0078,
                    -0.60645,
                    0.00243
                ],
                [
                    -0.39071,
                    0.0,
                    -0.6904
                ]
            ],
            [
                [
                    -2.06342,
                    -0.0,
                    0.48005
                ],
                [
                    -0.0078,
                    -0.60645,
                    0.00243
                ],
                [
                    0.39071,
                    0.0,
                    -0.6904
                ]
            ],
            [
                [
                    -2.06342,
                    -0.0,
                    -0.48005
                ],
                [
                    -0.0078,
                    -0.60645,
                    -0.00243
                ],
                [
                    -0.38883,
                    0.0,
                    -0.6902
                ]
            ],
            [
                [
                    -1.0356,
                    -0.0,
                    0.79654
                ],
                [
                    -0.00229,
                    -0.55203,
                    0.00389
                ],
                [
                    0.79307,
                    0.0,
                    -1.58438
                ]
            ],
            [
                [
                    -1.0356,
                    -0.0,
                    -0.79654
                ],
                [
                    -0.00229,
                    -0.55203,
                    -0.00389
                ],
                [
                    -0.79362,
                    0.0,
                    -1.58551
                ]
            ],
            [
                [
                    -1.04135,
                    -0.0,
                    0.80181
                ],
                [
                    0.00229,
                    -0.55203,
                    -0.00389
                ],
                [
                    0.79362,
                    0.0,
                    -1.58551
                ]
            ],
            [
                [
                    -1.04135,
                    -0.0,
                    -0.80181
                ],
                [
                    0.00229,
                    -0.55203,
                    0.00389
                ],
                [
                    -0.79307,
                    0.0,
                    -1.58438
                ]
            ]
        ]
    },
    "band_gap": 4.4204,
    "is_direct": false,
    "formula": "CsReO4"
}