{
    "mp_id": "mp-13019",
    "nelements": 4,
    "nsites": 20,
    "elements": [
        "La",
        "Na",
        "O",
        "Ta"
    ],
    "structure": {
        "@module": "pymatgen.core.structure",
        "@class": "Structure",
        "charge": null,
        "lattice": {
            "matrix": [
                [
                    5.65961599,
                    0.0,
                    0.00011205
                ],
                [
                    0.0,
                    5.94362902,
                    0.0
                ],
                [
                    -5.51894752,
                    0.0,
                    8.12760142
                ]
            ],
            "a": 5.659615991109193,
            "b": 5.94362902,
            "c": 9.824290639578013,
            "alpha": 90.0,
            "beta": 124.17684745837563,
            "gamma": 90.0,
            "volume": 273.405278757779
        },
        "sites": [
            {
                "species": [
                    {
                        "element": "Na",
                        "occu": 1
                    }
                ],
                "abc": [
                    0.0,
                    0.5,
                    0.5
                ],
                "xyz": [
                    -2.75947376,
                    2.97181451,
                    4.06380071
                ],
                "label": "Na",
                "properties": {}
            },
            {
                "species": [
                    {
                        "element": "Na",
                        "occu": 1
                    }
                ],
                "abc": [
                    0.0,
                    0.0,
                    0.0
                ],
                "xyz": [
                    0.0,
                    0.0,
                    0.0
                ],
                "label": "Na",
                "properties": {}
            },
            {
                "species": [
                    {
                        "element": "La",
                        "occu": 1
                    }
                ],
                "abc": [
                    0.22684885,
                    0.94070981,
                    0.74492036
                ],
                "xyz": [
                    -2.827298994646396,
                    5.591230126114686,
                    6.054441194136553
                ],
                "label": "La",
                "properties": {}
            },
            {
                "species": [
                    {
                        "element": "La",
                        "occu": 1
                    }
                ],
                "abc": [
                    0.77315115,
                    0.44070981,
                    0.75507964
                ],
                "xyz": [
                    0.20849370464639527,
                    2.6194156161146864,
                    6.137072985863447
                ],
                "label": "La",
                "properties": {}
            },
            {
                "species": [
                    {
                        "element": "La",
                        "occu": 1
                    }
                ],
                "abc": [
                    0.22684885,
                    0.55929019,
                    0.24492036
                ],
                "xyz": [
                    -0.0678252346463959,
                    3.324213403885314,
                    1.9906404841365537
                ],
                "label": "La",
                "properties": {}
            },
            {
                "species": [
                    {
                        "element": "La",
                        "occu": 1
                    }
                ],
                "abc": [
                    0.77315115,
                    0.05929019,
                    0.25507964
                ],
                "xyz": [
                    2.967967464646396,
                    0.3523988938853138,
                    2.073272275863446
                ],
                "label": "La",
                "properties": {}
            },
            {
                "species": [
                    {
                        "element": "Ta",
                        "occu": 1
                    }
                ],
                "abc": [
                    0.5,
                    0.5,
                    0.0
                ],
                "xyz": [
                    2.829807995,
                    2.97181451,
                    5.6025e-05
                ],
                "label": "Ta",
                "properties": {}
            },
            {
                "species": [
                    {
                        "element": "Ta",
                        "occu": 1
                    }
                ],
                "abc": [
                    0.5,
                    0.0,
                    0.5
                ],
                "xyz": [
                    0.0703342349999998,
                    0.0,
                    4.063856735
                ],
                "label": "Ta",
                "properties": {}
            },
            {
                "species": [
                    {
                        "element": "O",
                        "occu": 1
                    }
                ],
                "abc": [
                    0.25542905,
                    0.27822909,
                    0.42760841
                ],
                "xyz": [
                    -0.9143180382101337,
                    1.6536904935321919,
                    3.4754593411449948
                ],
                "label": "O",
                "properties": {}
            },
            {
                "species": [
                    {
                        "element": "O",
                        "occu": 1
                    }
                ],
                "abc": [
                    0.74457095,
                    0.77822909,
                    0.07239159
                ],
                "xyz": [
                    3.8144602682101336,
                    4.625505003532192,
                    0.5884534188550054
                ],
                "label": "O",
                "properties": {}
            },
            {
                "species": [
                    {
                        "element": "O",
                        "occu": 1
                    }
                ],
                "abc": [
                    0.74457095,
                    0.72177091,
                    0.57239159
                ],
                "xyz": [
                    1.0549865082101335,
                    4.289938526467809,
                    4.652254128855004
                ],
                "label": "O",
                "properties": {}
            },
            {
                "species": [
                    {
                        "element": "O",
                        "occu": 1
                    }
                ],
                "abc": [
                    0.25542905,
                    0.22177091,
                    0.92760841
                ],
                "xyz": [
                    -3.673791798210134,
                    1.3181240164678083,
                    7.5392600511449945
                ],
                "label": "O",
                "properties": {}
            },
            {
                "species": [
                    {
                        "element": "O",
                        "occu": 1
                    }
                ],
                "abc": [
                    0.39064146,
                    0.94548358,
                    0.27046933
                ],
                "xyz": [
                    0.7181746153333837,
                    5.619603644021492,
                    2.1983106819500415
                ],
                "label": "O",
                "properties": {}
            },
            {
                "species": [
                    {
                        "element": "O",
                        "occu": 1
                    }
                ],
                "abc": [
                    0.60935854,
                    0.44548358,
                    0.22953067
                ],
                "xyz": [
                    2.181967614666616,
                    2.6477891340214916,
                    1.8656020780499583
                ],
                "label": "O",
                "properties": {}
            },
            {
                "species": [
                    {
                        "element": "O",
                        "occu": 1
                    }
                ],
                "abc": [
                    0.60935854,
                    0.05451642,
                    0.72953067
                ],
                "xyz": [
                    -0.5775061453333841,
                    0.32402537597850845,
                    5.929402788049958
                ],
                "label": "O",
                "properties": {}
            },
            {
                "species": [
                    {
                        "element": "O",
                        "occu": 1
                    }
                ],
                "abc": [
                    0.39064146,
                    0.55451642,
                    0.77046933
                ],
                "xyz": [
                    -2.041299144666616,
                    3.2958398859785087,
                    6.262111391950041
                ],
                "label": "O",
                "properties": {}
            },
            {
                "species": [
                    {
                        "element": "O",
                        "occu": 1
                    }
                ],
                "abc": [
                    0.16083185,
                    0.67807201,
                    0.94795749
                ],
                "xyz": [
                    -4.321481128539643,
                    4.03020847628573,
                    7.704638663032428
                ],
                "label": "O",
                "properties": {}
            },
            {
                "species": [
                    {
                        "element": "O",
                        "occu": 1
                    }
                ],
                "abc": [
                    0.83916815,
                    0.17807201,
                    0.55204251
                ],
                "xyz": [
                    1.7026758385396432,
                    1.0583939662857302,
                    4.486875516967571
                ],
                "label": "O",
                "properties": {}
            },
            {
                "species": [
                    {
                        "element": "O",
                        "occu": 1
                    }
                ],
                "abc": [
                    0.83916815,
                    0.32192799,
                    0.05204251
                ],
                "xyz": [
                    4.462149598539644,
                    1.91342054371427,
                    0.4230748069675717
                ],
                "label": "O",
                "properties": {}
            },
            {
                "species": [
                    {
                        "element": "O",
                        "occu": 1
                    }
                ],
                "abc": [
                    0.16083185,
                    0.82192799,
                    0.44795749
                ],
                "xyz": [
                    -1.5620073685396436,
                    4.88523505371427,
                    3.640837953032428
                ],
                "label": "O",
                "properties": {}
            }
        ]
    },
    "spacegroup": {
        "source": "spglib",
        "symbol": "P2_1/c",
        "number": 14,
        "point_group": "2/m",
        "crystal_system": "monoclinic",
        "hall": "-P 2ybc"
    },
    "dielectric": {
        "epsilon_ionic": [
            [
                20.44425645,
                1e-08,
                -1.70200124
            ],
            [
                1e-08,
                16.70167501,
                -0.0
            ],
            [
                -1.70200124,
                -0.0,
                20.80406533
            ]
        ],
        "epsilon_ionic_avg": 19.31666559666667,
        "epsilon_ionic_eig": [
            22.33564382257435,
            18.912677957425664,
            16.70167501
        ],
        "epsilon_electronic": [
            [
                4.5442678,
                0.0,
                0.10553735
            ],
            [
                0.0,
                4.4751151,
                0.0
            ],
            [
                0.10675698,
                0.0,
                4.33027836
            ]
        ],
        "epsilon_electronic_avg": 4.449887086666667,
        "epsilon_electronic_eig": [
            4.587987110106959,
            4.286559049893041,
            4.4751151
        ]
    },
    "phonon": {
        "lowest_freq": -0.026352590923340417,
        "frequency": [
            -0.026352590923340417,
            -0.013866540944761639,
            -0.00930659906293241,
            1.9131242958847554,
            2.713407737863747,
            2.7611161452256354,
            2.8064402708700094,
            2.897353938421475,
            3.316367766337099,
            3.395773280695251,
            3.49403478163768,
            3.8724351302022604,
            4.0072128646458,
            4.31997517224853,
            4.438090162174646,
            4.504704772405513,
            4.662846630406277,
            4.783168912111072,
            5.436444187775901,
            5.940361792924647,
            6.085578644231605,
            6.2694907769133135,
            6.514259386147864,
            6.908728367775931,
            7.229622073399058,
            7.291451140655958,
            7.3766764143479,
            7.555170880370844,
            7.762433307204272,
            7.797596904701841,
            8.011514569141314,
            8.322106726085567,
            8.526737942447333,
            8.586134685838212,
            8.604040317808273,
            9.101282808408264,
            9.963804115658473,
            10.021130521596845,
            10.379710878295969,
            11.021529887834724,
            11.258048944167365,
            11.808422127292872,
            12.050019812694856,
            12.598217494912124,
            12.64609146167267,
            12.90946552411551,
            13.549183957911419,
            14.313084505882648,
            15.294455167799654,
            15.384402274710169,
            15.519532928092193,
            15.819023817048159,
            16.24592652997123,
            16.295097627864813,
            16.651852042286468,
            16.714150338918405,
            17.37248882259239,
            17.69751282764198,
            21.085288557108953,
            21.21259826556453
        ]
    },
    "born_effective_charge": {
        "avg_abs_trace": 3.050012333333334,
        "tensors": [
            [
                [
                    1.11929,
                    0.0583,
                    -0.07048
                ],
                [
                    -0.0171,
                    1.18221,
                    0.04824
                ],
                [
                    0.03161,
                    0.05439,
                    1.14558
                ]
            ],
            [
                [
                    1.11929,
                    -0.0583,
                    -0.07048
                ],
                [
                    0.0171,
                    1.18221,
                    -0.04824
                ],
                [
                    0.03161,
                    -0.05439,
                    1.14558
                ]
            ],
            [
                [
                    4.38747,
                    -0.29277,
                    0.31797
                ],
                [
                    -0.10407,
                    4.32381,
                    -0.02207
                ],
                [
                    -0.13369,
                    -0.43417,
                    3.79773
                ]
            ],
            [
                [
                    4.38764,
                    0.29293,
                    0.31792
                ],
                [
                    0.10407,
                    4.32381,
                    0.02207
                ],
                [
                    -0.13395,
                    0.43422,
                    3.79793
                ]
            ],
            [
                [
                    4.38747,
                    0.29277,
                    0.31797
                ],
                [
                    0.10431,
                    4.32377,
                    0.02167
                ],
                [
                    -0.13369,
                    0.43417,
                    3.79773
                ]
            ],
            [
                [
                    4.38764,
                    -0.29293,
                    0.31792
                ],
                [
                    -0.10431,
                    4.32377,
                    -0.02167
                ],
                [
                    -0.13395,
                    -0.43422,
                    3.79793
                ]
            ],
            [
                [
                    5.94803,
                    0.0763,
                    -0.37841
                ],
                [
                    0.8721,
                    5.56005,
                    -0.29014
                ],
                [
                    0.87301,
                    0.22341,
                    5.77667
                ]
            ],
            [
                [
                    5.94803,
                    -0.0763,
                    -0.37841
                ],
                [
                    -0.8721,
                    5.56005,
                    0.29014
                ],
                [
                    0.87301,
                    -0.22341,
                    5.77667
                ]
            ],
            [
                [
                    -2.11485,
                    0.22172,
                    -0.46367
                ],
                [
                    0.25121,
                    -3.3112,
                    0.80834
                ],
                [
                    -0.51266,
                    0.85846,
                    -2.24836
                ]
            ],
            [
                [
                    -2.11481,
                    -0.22171,
                    -0.46364
                ],
                [
                    -0.25121,
                    -3.3112,
                    -0.80834
                ],
                [
                    -0.51281,
                    -0.85845,
                    -2.24838
                ]
            ],
            [
                [
                    -2.11481,
                    0.22171,
                    -0.46364
                ],
                [
                    0.25171,
                    -3.31102,
                    0.80817
                ],
                [
                    -0.51281,
                    0.85845,
                    -2.24838
                ]
            ],
            [
                [
                    -2.11485,
                    -0.22172,
                    -0.46367
                ],
                [
                    -0.25171,
                    -3.31102,
                    -0.80817
                ],
                [
                    -0.51266,
                    -0.85846,
                    -2.24836
                ]
            ],
            [
                [
                    -2.73425,
                    -0.47802,
                    0.75645
                ],
                [
                    -0.42678,
                    -2.27863,
                    -0.47896
                ],
                [
                    0.67686,
                    -0.4653,
                    -2.73907
                ]
            ],
            [
                [
                    -2.73419,
                    0.47806,
                    0.75638
                ],
                [
                    0.42678,
                    -2.27863,
                    0.47896
                ],
                [
                    0.67676,
                    0.46537,
                    -2.73903
                ]
            ],
            [
                [
                    -2.73419,
                    -0.47806,
                    0.75638
                ],
                [
                    -0.42697,
                    -2.27864,
                    -0.47854
                ],
                [
                    0.67676,
                    -0.46537,
                    -2.73903
                ]
            ],
            [
                [
                    -2.73425,
                    0.47802,
                    0.75645
                ],
                [
                    0.42697,
                    -2.27864,
                    0.47854
                ],
                [
                    0.67686,
                    0.4653,
                    -2.73907
                ]
            ],
            [
                [
                    -3.07221,
                    0.1695,
                    -0.38628
                ],
                [
                    0.14468,
                    -2.10507,
                    0.23655
                ],
                [
                    -0.48257,
                    0.09141,
                    -2.27159
                ]
            ],
            [
                [
                    -3.07213,
                    -0.16948,
                    -0.38624
                ],
                [
                    -0.14468,
                    -2.10507,
                    -0.23655
                ],
                [
                    -0.48256,
                    -0.09131,
                    -2.27148
                ]
            ],
            [
                [
                    -3.07213,
                    0.16948,
                    -0.38624
                ],
                [
                    0.1444,
                    -2.10528,
                    0.23654
                ],
                [
                    -0.48256,
                    0.09131,
                    -2.27148
                ]
            ],
            [
                [
                    -3.07221,
                    -0.1695,
                    -0.38628
                ],
                [
                    -0.1444,
                    -2.10528,
                    -0.23654
                ],
                [
                    -0.48257,
                    -0.09141,
                    -2.27159
                ]
            ]
        ]
    },
    "band_gap": 4.2052000000000005,
    "is_direct": false,
    "formula": "NaLa2TaO6"
}