{
    "mp_id": "mp-1214569",
    "nelements": 4,
    "nsites": 15,
    "elements": [
        "Ba",
        "Ca",
        "Nb",
        "O"
    ],
    "structure": {
        "@module": "pymatgen.core.structure",
        "@class": "Structure",
        "charge": null,
        "lattice": {
            "matrix": [
                [
                    5.93034085,
                    0.0,
                    0.0
                ],
                [
                    -2.96517042,
                    5.13582554,
                    0.0
                ],
                [
                    0.0,
                    0.0,
                    7.31426929
                ]
            ],
            "a": 5.93034085,
            "b": 5.930340597044934,
            "c": 7.31426929,
            "alpha": 90.0,
            "beta": 90.0,
            "gamma": 120.0000013552154,
            "volume": 222.77213335013488
        },
        "sites": [
            {
                "species": [
                    {
                        "element": "Ba",
                        "occu": 1
                    }
                ],
                "abc": [
                    0.0,
                    0.0,
                    0.0
                ],
                "xyz": [
                    0.0,
                    0.0,
                    0.0
                ],
                "label": "Ba",
                "properties": {}
            },
            {
                "species": [
                    {
                        "element": "Ba",
                        "occu": 1
                    }
                ],
                "abc": [
                    0.333333,
                    0.666667,
                    0.66685267
                ],
                "xyz": [
                    -2.9618370902539937e-06,
                    3.42388540527518,
                    4.877540005135505
                ],
                "label": "Ba",
                "properties": {}
            },
            {
                "species": [
                    {
                        "element": "Ba",
                        "occu": 1
                    }
                ],
                "abc": [
                    0.666667,
                    0.333333,
                    0.33314733
                ],
                "xyz": [
                    2.9651733918370904,
                    1.71194013472482,
                    2.436729284864496
                ],
                "label": "Ba",
                "properties": {}
            },
            {
                "species": [
                    {
                        "element": "Ca",
                        "occu": 1
                    }
                ],
                "abc": [
                    0.0,
                    0.0,
                    0.5
                ],
                "xyz": [
                    0.0,
                    0.0,
                    3.657134645
                ],
                "label": "Ca",
                "properties": {}
            },
            {
                "species": [
                    {
                        "element": "Nb",
                        "occu": 1
                    }
                ],
                "abc": [
                    0.333333,
                    0.666667,
                    0.16895378
                ],
                "xyz": [
                    -2.9618370902539937e-06,
                    3.42388540527518,
                    1.2357734444834163
                ],
                "label": "Nb",
                "properties": {}
            },
            {
                "species": [
                    {
                        "element": "Nb",
                        "occu": 1
                    }
                ],
                "abc": [
                    0.666667,
                    0.333333,
                    0.83104622
                ],
                "xyz": [
                    2.9651733918370904,
                    1.71194013472482,
                    6.078495845516584
                ],
                "label": "Nb",
                "properties": {}
            },
            {
                "species": [
                    {
                        "element": "O",
                        "occu": 1
                    }
                ],
                "abc": [
                    0.17530901,
                    0.82469099,
                    0.31599408
                ],
                "xyz": [
                    -1.4057071458124577,
                    4.235469049049884,
                    2.3112657951658035
                ],
                "label": "O",
                "properties": {}
            },
            {
                "species": [
                    {
                        "element": "O",
                        "occu": 1
                    }
                ],
                "abc": [
                    0.82469099,
                    0.17530901,
                    0.68400592
                ],
                "xyz": [
                    4.370877575812458,
                    0.9003564909501153,
                    5.003003494834197
                ],
                "label": "O",
                "properties": {}
            },
            {
                "species": [
                    {
                        "element": "O",
                        "occu": 1
                    }
                ],
                "abc": [
                    0.17530901,
                    0.35061903,
                    0.31599408
                ],
                "xyz": [
                    -2.9930690341739563e-06,
                    1.8007181690840262,
                    2.3112657951658035
                ],
                "label": "O",
                "properties": {}
            },
            {
                "species": [
                    {
                        "element": "O",
                        "occu": 1
                    }
                ],
                "abc": [
                    0.82469099,
                    0.64938097,
                    0.68400592
                ],
                "xyz": [
                    2.965173423069035,
                    3.3351073709159733,
                    5.003003494834197
                ],
                "label": "O",
                "properties": {}
            },
            {
                "species": [
                    {
                        "element": "O",
                        "occu": 1
                    }
                ],
                "abc": [
                    0.64938097,
                    0.82469099,
                    0.31599408
                ],
                "xyz": [
                    1.4057011644151083,
                    4.235469049049884,
                    2.3112657951658035
                ],
                "label": "O",
                "properties": {}
            },
            {
                "species": [
                    {
                        "element": "O",
                        "occu": 1
                    }
                ],
                "abc": [
                    0.35061903,
                    0.17530901,
                    0.68400592
                ],
                "xyz": [
                    1.5594692655848912,
                    0.9003564909501153,
                    5.003003494834197
                ],
                "label": "O",
                "properties": {}
            },
            {
                "species": [
                    {
                        "element": "O",
                        "occu": 1
                    }
                ],
                "abc": [
                    0.5,
                    0.0,
                    0.0
                ],
                "xyz": [
                    2.965170425,
                    0.0,
                    0.0
                ],
                "label": "O",
                "properties": {}
            },
            {
                "species": [
                    {
                        "element": "O",
                        "occu": 1
                    }
                ],
                "abc": [
                    0.0,
                    0.5,
                    0.0
                ],
                "xyz": [
                    -1.48258521,
                    2.56791277,
                    0.0
                ],
                "label": "O",
                "properties": {}
            },
            {
                "species": [
                    {
                        "element": "O",
                        "occu": 1
                    }
                ],
                "abc": [
                    0.5,
                    0.5,
                    0.0
                ],
                "xyz": [
                    1.482585215,
                    2.56791277,
                    0.0
                ],
                "label": "O",
                "properties": {}
            }
        ]
    },
    "spacegroup": {
        "source": "spglib",
        "symbol": "P-3m1",
        "number": 164,
        "point_group": "-3m",
        "crystal_system": "trigonal",
        "hall": "-P 3 2\""
    },
    "dielectric": {
        "epsilon_ionic": [
            [
                62.55069368,
                -4.79e-06,
                -1e-08
            ],
            [
                -4.79e-06,
                62.53098789,
                1.662e-05
            ],
            [
                -1e-08,
                1.662e-05,
                34.29018812
            ]
        ],
        "epsilon_ionic_avg": 53.12395656333333,
        "epsilon_ionic_eig": [
            62.55069368116436,
            62.53098788884541,
            34.29018811999022
        ],
        "epsilon_electronic": [
            [
                4.88200415,
                4.8e-07,
                0.0
            ],
            [
                4.8e-07,
                4.88200422,
                0.0
            ],
            [
                0.0,
                0.0,
                4.70987204
            ]
        ],
        "epsilon_electronic_avg": 4.8246268033333335,
        "epsilon_electronic_eig": [
            4.88200370372565,
            4.88200466627435,
            4.70987204
        ]
    },
    "phonon": {
        "lowest_freq": -0.13571911765229958,
        "frequency": [
            -0.13571911765229958,
            -0.1357191044165736,
            -0.01761868703415731,
            0.5743137687026747,
            1.8795517918042524,
            1.8795519283368716,
            1.9498940733604166,
            2.3553792369018223,
            2.3652440568426845,
            2.3847482428567215,
            2.384748473447213,
            2.7568694936512466,
            2.756869746307509,
            3.0185461001587095,
            3.15215439771674,
            3.152154610936099,
            3.2081748897910325,
            3.208175156422514,
            5.370075396000356,
            5.3700754870233345,
            6.368914792733653,
            6.59431782363769,
            6.594318305446677,
            7.542787425949737,
            7.6051240861957865,
            8.215020299139718,
            8.215020715645295,
            8.859704821166133,
            8.859705648733613,
            9.372733432679425,
            9.998795538785322,
            9.998795978758542,
            10.919369003669296,
            10.91936922749187,
            11.452229409884962,
            11.614236132734634,
            15.11351727105323,
            15.11351743276286,
            16.937611581910893,
            18.486827786259003,
            18.486828381169385,
            18.558577983674112,
            18.55857857628448,
            23.711605580260983,
            24.038345398291206
        ]
    },
    "born_effective_charge": {
        "avg_abs_trace": 3.2954842222222225,
        "tensors": [
            [
                [
                    3.02762,
                    0.0,
                    0.0
                ],
                [
                    -0.0,
                    3.02778,
                    -0.00027
                ],
                [
                    0.0,
                    -0.0,
                    2.08005
                ]
            ],
            [
                [
                    2.64531,
                    -8e-05,
                    1e-05
                ],
                [
                    -0.0,
                    2.64542,
                    -5e-05
                ],
                [
                    0.0,
                    -0.0,
                    3.04967
                ]
            ],
            [
                [
                    2.64531,
                    8e-05,
                    -1e-05
                ],
                [
                    -0.0,
                    2.64546,
                    -4e-05
                ],
                [
                    0.0,
                    -0.0,
                    3.04977
                ]
            ],
            [
                [
                    3.06685,
                    0.0,
                    0.0
                ],
                [
                    0.0,
                    3.06595,
                    4e-05
                ],
                [
                    0.0,
                    -0.0,
                    3.44528
                ]
            ],
            [
                [
                    6.87959,
                    2e-05,
                    4e-05
                ],
                [
                    0.0,
                    6.87894,
                    0.0002
                ],
                [
                    0.0,
                    -0.0,
                    6.11844
                ]
            ],
            [
                [
                    6.87959,
                    -2e-05,
                    -4e-05
                ],
                [
                    0.0,
                    6.87921,
                    -1e-05
                ],
                [
                    0.0,
                    -0.0,
                    6.11814
                ]
            ],
            [
                [
                    -3.02184,
                    0.61889,
                    0.82397
                ],
                [
                    0.61904,
                    -2.30641,
                    -0.47603
                ],
                [
                    0.89393,
                    -0.51611,
                    -2.61475
                ]
            ],
            [
                [
                    -3.02211,
                    0.61893,
                    0.82407
                ],
                [
                    0.61893,
                    -2.30648,
                    -0.47594
                ],
                [
                    0.89379,
                    -0.51603,
                    -2.61482
                ]
            ],
            [
                [
                    -1.94915,
                    -0.00017,
                    0.0001
                ],
                [
                    -0.0,
                    -3.37912,
                    0.95197
                ],
                [
                    0.0,
                    1.03222,
                    -2.61475
                ]
            ],
            [
                [
                    -1.94915,
                    0.00017,
                    -0.0001
                ],
                [
                    -0.0,
                    -3.37908,
                    0.95199
                ],
                [
                    0.0,
                    1.03206,
                    -2.61482
                ]
            ],
            [
                [
                    -3.02211,
                    -0.61893,
                    -0.82407
                ],
                [
                    -0.61904,
                    -2.30641,
                    -0.47603
                ],
                [
                    -0.89393,
                    -0.51611,
                    -2.61475
                ]
            ],
            [
                [
                    -3.02184,
                    -0.61889,
                    -0.82397
                ],
                [
                    -0.61893,
                    -2.30648,
                    -0.47594
                ],
                [
                    -0.89379,
                    -0.51603,
                    -2.61482
                ]
            ],
            [
                [
                    -1.83319,
                    0.0,
                    0.0
                ],
                [
                    -0.0,
                    -4.27246,
                    1.67909
                ],
                [
                    0.0,
                    1.41393,
                    -2.72421
                ]
            ],
            [
                [
                    -3.66245,
                    -1.05612,
                    -1.45438
                ],
                [
                    -1.05613,
                    -2.44317,
                    -0.83949
                ],
                [
                    -1.2245,
                    -0.70696,
                    -2.72421
                ]
            ],
            [
                [
                    -3.66245,
                    1.05612,
                    1.45438
                ],
                [
                    1.05613,
                    -2.44317,
                    -0.83949
                ],
                [
                    1.2245,
                    -0.70696,
                    -2.72421
                ]
            ]
        ]
    },
    "band_gap": 2.8871,
    "is_direct": false,
    "formula": "Ba3CaNb2O9"
}