{
    "mp_id": "mp-1206644",
    "nelements": 4,
    "nsites": 10,
    "elements": [
        "Ba",
        "Nb",
        "O",
        "Sc"
    ],
    "structure": {
        "@module": "pymatgen.core.structure",
        "@class": "Structure",
        "charge": null,
        "lattice": {
            "matrix": [
                [
                    0.0,
                    4.122629,
                    4.122629
                ],
                [
                    4.122629,
                    0.0,
                    4.122629
                ],
                [
                    4.122629,
                    4.122629,
                    0.0
                ]
            ],
            "a": 5.83027784443263,
            "b": 5.83027784443263,
            "c": 5.83027784443263,
            "alpha": 60.00000000000001,
            "beta": 60.00000000000001,
            "gamma": 60.00000000000001,
            "volume": 140.1369810777069
        },
        "sites": [
            {
                "species": [
                    {
                        "element": "Ba",
                        "occu": 1
                    }
                ],
                "abc": [
                    0.25,
                    0.25,
                    0.25
                ],
                "xyz": [
                    2.0613145,
                    2.0613145,
                    2.0613145
                ],
                "label": "Ba",
                "properties": {}
            },
            {
                "species": [
                    {
                        "element": "Ba",
                        "occu": 1
                    }
                ],
                "abc": [
                    0.75,
                    0.75,
                    0.75
                ],
                "xyz": [
                    6.1839435,
                    6.1839435,
                    6.1839435
                ],
                "label": "Ba",
                "properties": {}
            },
            {
                "species": [
                    {
                        "element": "Sc",
                        "occu": 1
                    }
                ],
                "abc": [
                    0.5,
                    0.5,
                    0.5
                ],
                "xyz": [
                    4.122629,
                    4.122629,
                    4.122629
                ],
                "label": "Sc",
                "properties": {}
            },
            {
                "species": [
                    {
                        "element": "Nb",
                        "occu": 1
                    }
                ],
                "abc": [
                    0.0,
                    0.0,
                    0.0
                ],
                "xyz": [
                    0.0,
                    0.0,
                    0.0
                ],
                "label": "Nb",
                "properties": {}
            },
            {
                "species": [
                    {
                        "element": "O",
                        "occu": 1
                    }
                ],
                "abc": [
                    0.754599,
                    0.245401,
                    0.245401
                ],
                "xyz": [
                    2.023394558458,
                    4.122629,
                    4.122629
                ],
                "label": "O",
                "properties": {}
            },
            {
                "species": [
                    {
                        "element": "O",
                        "occu": 1
                    }
                ],
                "abc": [
                    0.245401,
                    0.754599,
                    0.754599
                ],
                "xyz": [
                    6.221863441542,
                    4.122629,
                    4.122629
                ],
                "label": "O",
                "properties": {}
            },
            {
                "species": [
                    {
                        "element": "O",
                        "occu": 1
                    }
                ],
                "abc": [
                    0.245401,
                    0.754599,
                    0.245401
                ],
                "xyz": [
                    4.122629,
                    2.023394558458,
                    4.122629
                ],
                "label": "O",
                "properties": {}
            },
            {
                "species": [
                    {
                        "element": "O",
                        "occu": 1
                    }
                ],
                "abc": [
                    0.754599,
                    0.245401,
                    0.754599
                ],
                "xyz": [
                    4.122629,
                    6.221863441542,
                    4.122629
                ],
                "label": "O",
                "properties": {}
            },
            {
                "species": [
                    {
                        "element": "O",
                        "occu": 1
                    }
                ],
                "abc": [
                    0.245401,
                    0.245401,
                    0.754599
                ],
                "xyz": [
                    4.122629,
                    4.122629,
                    2.023394558458
                ],
                "label": "O",
                "properties": {}
            },
            {
                "species": [
                    {
                        "element": "O",
                        "occu": 1
                    }
                ],
                "abc": [
                    0.754599,
                    0.754599,
                    0.245401
                ],
                "xyz": [
                    4.122629,
                    4.122629,
                    6.221863441542
                ],
                "label": "O",
                "properties": {}
            }
        ]
    },
    "spacegroup": {
        "source": "spglib",
        "symbol": "Fm-3m",
        "number": 225,
        "point_group": "m-3m",
        "crystal_system": "cubic",
        "hall": "-F 4 2 3"
    },
    "dielectric": {
        "epsilon_ionic": [
            [
                35.1630861,
                0.0,
                0.0
            ],
            [
                0.0,
                35.16534143,
                -0.0
            ],
            [
                0.0,
                -0.0,
                35.16432985
            ]
        ],
        "epsilon_ionic_avg": 35.16425246,
        "epsilon_ionic_eig": [
            35.1630861,
            35.16534143,
            35.16432985
        ],
        "epsilon_electronic": [
            [
                5.2214083,
                0.0,
                -0.0
            ],
            [
                0.0,
                5.2214083,
                -0.0
            ],
            [
                0.0,
                0.0,
                5.2214083
            ]
        ],
        "epsilon_electronic_avg": 5.2214083,
        "epsilon_electronic_eig": [
            5.2214083,
            5.2214083,
            5.2214083
        ]
    },
    "phonon": {
        "lowest_freq": -0.03077397979186473,
        "frequency": [
            -0.03077397979186473,
            -0.03077397979186473,
            -0.03077397979186473,
            2.6891114608871822,
            2.6891114608871822,
            2.6891114608871822,
            3.317283172939134,
            3.317283172939134,
            3.317283172939134,
            3.8609069797606703,
            3.8609069797606703,
            3.8609069797606703,
            6.7156115168222295,
            6.7156115168222295,
            6.7156115168222295,
            6.9858852689549655,
            6.9858852689549655,
            6.9858852689549655,
            10.640126856111248,
            10.640126856111248,
            10.640126856111248,
            11.320829979958404,
            11.320829979958404,
            11.320829979958404,
            15.619032413238521,
            15.619032413238521,
            15.619032413238521,
            15.676966195612138,
            15.676966195612138,
            23.655933270192843
        ]
    },
    "born_effective_charge": {
        "avg_abs_trace": 3.5406436666666665,
        "tensors": [
            [
                [
                    2.72864,
                    -0.0,
                    0.0
                ],
                [
                    0.0,
                    2.72887,
                    0.0
                ],
                [
                    0.0,
                    -0.0,
                    2.7288
                ]
            ],
            [
                [
                    2.72864,
                    -0.0,
                    0.0
                ],
                [
                    -0.0,
                    2.72887,
                    0.0
                ],
                [
                    0.0,
                    -0.0,
                    2.7288
                ]
            ],
            [
                [
                    5.33264,
                    -0.0,
                    0.0
                ],
                [
                    0.0,
                    5.33238,
                    0.0
                ],
                [
                    0.0,
                    -0.0,
                    5.33243
                ]
            ],
            [
                [
                    6.91301,
                    -0.0,
                    0.0
                ],
                [
                    0.0,
                    6.91336,
                    0.0
                ],
                [
                    0.0,
                    -0.0,
                    6.91321
                ]
            ],
            [
                [
                    -4.85659,
                    -0.0,
                    0.0
                ],
                [
                    -2e-05,
                    -1.99756,
                    0.0
                ],
                [
                    -0.0,
                    -0.0,
                    -1.9975
                ]
            ],
            [
                [
                    -4.85649,
                    -0.0,
                    0.0
                ],
                [
                    2e-05,
                    -1.99756,
                    0.0
                ],
                [
                    0.0,
                    -0.0,
                    -1.9975
                ]
            ],
            [
                [
                    -1.99746,
                    8e-05,
                    0.0
                ],
                [
                    0.0,
                    -4.85648,
                    0.0
                ],
                [
                    0.0,
                    -0.0,
                    -1.9975
                ]
            ],
            [
                [
                    -1.99746,
                    -8e-05,
                    0.0
                ],
                [
                    0.0,
                    -4.85676,
                    0.0
                ],
                [
                    0.0,
                    0.0,
                    -1.9975
                ]
            ],
            [
                [
                    -1.99746,
                    -0.0,
                    8e-05
                ],
                [
                    0.0,
                    -1.99756,
                    -2e-05
                ],
                [
                    0.0,
                    -0.0,
                    -4.85653
                ]
            ],
            [
                [
                    -1.99746,
                    -0.0,
                    -8e-05
                ],
                [
                    0.0,
                    -1.99756,
                    2e-05
                ],
                [
                    0.0,
                    -0.0,
                    -4.85673
                ]
            ]
        ]
    },
    "band_gap": 2.7342999999999997,
    "is_direct": true,
    "formula": "Ba2ScNbO6"
}