{
    "mp_id": "mp-19302",
    "nelements": 4,
    "nsites": 14,
    "elements": [
        "Ca",
        "Na",
        "O",
        "V"
    ],
    "structure": {
        "@module": "pymatgen.core.structure",
        "@class": "Structure",
        "charge": null,
        "lattice": {
            "matrix": [
                [
                    2.93512996,
                    -4.62826507,
                    0.0
                ],
                [
                    2.93512996,
                    4.62826507,
                    0.0
                ],
                [
                    0.0,
                    0.0,
                    7.07480924
                ]
            ],
            "a": 5.480494999566345,
            "b": 5.480494999566345,
            "c": 7.07480924,
            "alpha": 90.0,
            "beta": 90.0,
            "gamma": 115.23630318672814,
            "volume": 192.21633371623685
        },
        "sites": [
            {
                "species": [
                    {
                        "element": "Na",
                        "occu": 1
                    }
                ],
                "abc": [
                    0.17760738,
                    0.82239262,
                    0.75
                ],
                "xyz": [
                    2.9351299600000003,
                    2.984237003943567,
                    5.30610693
                ],
                "label": "Na",
                "properties": {}
            },
            {
                "species": [
                    {
                        "element": "Na",
                        "occu": 1
                    }
                ],
                "abc": [
                    0.82239262,
                    0.17760738,
                    0.25
                ],
                "xyz": [
                    2.9351299600000003,
                    -2.984237003943567,
                    1.76870231
                ],
                "label": "Na",
                "properties": {}
            },
            {
                "species": [
                    {
                        "element": "Ca",
                        "occu": 1
                    }
                ],
                "abc": [
                    0.5,
                    0.5,
                    0.5
                ],
                "xyz": [
                    2.93512996,
                    0.0,
                    3.53740462
                ],
                "label": "Ca",
                "properties": {}
            },
            {
                "species": [
                    {
                        "element": "Ca",
                        "occu": 1
                    }
                ],
                "abc": [
                    0.5,
                    0.5,
                    0.0
                ],
                "xyz": [
                    2.93512996,
                    0.0,
                    0.0
                ],
                "label": "Ca",
                "properties": {}
            },
            {
                "species": [
                    {
                        "element": "V",
                        "occu": 1
                    }
                ],
                "abc": [
                    0.85279093,
                    0.14720907,
                    0.75
                ],
                "xyz": [
                    2.93512996,
                    -3.26561987666363,
                    5.30610693
                ],
                "label": "V",
                "properties": {}
            },
            {
                "species": [
                    {
                        "element": "V",
                        "occu": 1
                    }
                ],
                "abc": [
                    0.14720907,
                    0.85279093,
                    0.25
                ],
                "xyz": [
                    2.93512996,
                    3.26561987666363,
                    1.76870231
                ],
                "label": "V",
                "properties": {}
            },
            {
                "species": [
                    {
                        "element": "O",
                        "occu": 1
                    }
                ],
                "abc": [
                    0.2543021,
                    0.7456979,
                    0.05456396
                ],
                "xyz": [
                    2.93512996,
                    2.274310016684707,
                    0.3860296083789904
                ],
                "label": "O",
                "properties": {}
            },
            {
                "species": [
                    {
                        "element": "O",
                        "occu": 1
                    }
                ],
                "abc": [
                    0.7456979,
                    0.2543021,
                    0.55456396
                ],
                "xyz": [
                    2.93512996,
                    -2.274310016684707,
                    3.9234342283789903
                ],
                "label": "O",
                "properties": {}
            },
            {
                "species": [
                    {
                        "element": "O",
                        "occu": 1
                    }
                ],
                "abc": [
                    0.7456979,
                    0.2543021,
                    0.94543604
                ],
                "xyz": [
                    2.93512996,
                    -2.274310016684707,
                    6.68877963162101
                ],
                "label": "O",
                "properties": {}
            },
            {
                "species": [
                    {
                        "element": "O",
                        "occu": 1
                    }
                ],
                "abc": [
                    0.2543021,
                    0.7456979,
                    0.44543604
                ],
                "xyz": [
                    2.93512996,
                    2.274310016684707,
                    3.1513750116210097
                ],
                "label": "O",
                "properties": {}
            },
            {
                "species": [
                    {
                        "element": "O",
                        "occu": 1
                    }
                ],
                "abc": [
                    0.20612682,
                    0.2764635,
                    0.75
                ],
                "xyz": [
                    1.416465306637987,
                    0.32553679918376766,
                    5.30610693
                ],
                "label": "O",
                "properties": {}
            },
            {
                "species": [
                    {
                        "element": "O",
                        "occu": 1
                    }
                ],
                "abc": [
                    0.79387318,
                    0.7235365,
                    0.25
                ],
                "xyz": [
                    4.453794613362012,
                    -0.3255367991837672,
                    1.76870231
                ],
                "label": "O",
                "properties": {}
            },
            {
                "species": [
                    {
                        "element": "O",
                        "occu": 1
                    }
                ],
                "abc": [
                    0.7235365,
                    0.79387318,
                    0.75
                ],
                "xyz": [
                    4.453794613362012,
                    0.3255367991837672,
                    5.30610693
                ],
                "label": "O",
                "properties": {}
            },
            {
                "species": [
                    {
                        "element": "O",
                        "occu": 1
                    }
                ],
                "abc": [
                    0.2764635,
                    0.20612682,
                    0.25
                ],
                "xyz": [
                    1.416465306637987,
                    -0.32553679918376766,
                    1.76870231
                ],
                "label": "O",
                "properties": {}
            }
        ]
    },
    "spacegroup": {
        "source": "spglib",
        "symbol": "Cmcm",
        "number": 63,
        "point_group": "mmm",
        "crystal_system": "orthorhombic",
        "hall": "-C 2c 2"
    },
    "dielectric": {
        "epsilon_ionic": [
            [
                18.43586165,
                3e-08,
                0.0
            ],
            [
                3e-08,
                5.2386054,
                -1e-08
            ],
            [
                0.0,
                -1e-08,
                3.83509803
            ]
        ],
        "epsilon_ionic_avg": 9.169855026666667,
        "epsilon_ionic_eig": [
            18.43586165,
            5.2386054,
            3.83509803
        ],
        "epsilon_electronic": [
            [
                3.4236536,
                0.0,
                0.0
            ],
            [
                0.0,
                3.40603503,
                0.0
            ],
            [
                0.0,
                0.0,
                3.27068641
            ]
        ],
        "epsilon_electronic_avg": 3.36679168,
        "epsilon_electronic_eig": [
            3.4236536,
            3.40603503,
            3.27068641
        ]
    },
    "phonon": {
        "lowest_freq": -0.10809006434191756,
        "frequency": [
            -0.10809006434191756,
            -0.06264353494078716,
            -0.04472499396452205,
            1.9672614976634066,
            2.4217508971747352,
            2.7159353345538877,
            3.6877220428952073,
            3.833194807852589,
            3.877087893145273,
            4.206812906343081,
            4.923386148725408,
            5.075689851433025,
            5.476575945598614,
            5.738500941528121,
            5.810757075757334,
            6.098709344735123,
            6.413911375003515,
            7.195321324924519,
            7.236948415870611,
            7.442788804691787,
            7.720846241581464,
            8.651149903220336,
            8.792634014829465,
            9.134626116574061,
            9.5031188545189,
            10.251506382765955,
            10.392467556663702,
            10.484956080701414,
            10.66692279563123,
            10.813596975187039,
            11.2268202408555,
            11.779177406092563,
            11.838555378537983,
            11.880874957682616,
            22.229215469123563,
            22.259763165486003,
            22.916520289915894,
            23.39780584637217,
            24.899325634900087,
            25.499061387319806,
            25.80081324815937,
            26.860355181240674
        ]
    },
    "born_effective_charge": {
        "avg_abs_trace": 2.024323571428572,
        "tensors": [
            [
                [
                    1.03904,
                    -1e-05,
                    0.0
                ],
                [
                    -0.0,
                    1.0946,
                    -0.0
                ],
                [
                    0.0,
                    -1e-05,
                    1.16994
                ]
            ],
            [
                [
                    1.03904,
                    1e-05,
                    0.0
                ],
                [
                    -0.0,
                    1.09462,
                    -0.0
                ],
                [
                    0.0,
                    1e-05,
                    1.16994
                ]
            ],
            [
                [
                    2.90817,
                    0.0,
                    0.0
                ],
                [
                    -0.0,
                    2.90092,
                    0.72567
                ],
                [
                    0.0,
                    -0.53803,
                    2.52861
                ]
            ],
            [
                [
                    2.90817,
                    0.0,
                    0.0
                ],
                [
                    -0.0,
                    2.90092,
                    -0.72567
                ],
                [
                    0.0,
                    0.53803,
                    2.52861
                ]
            ],
            [
                [
                    3.2078,
                    -0.0002,
                    0.0
                ],
                [
                    -0.0,
                    3.27774,
                    -0.0
                ],
                [
                    0.0,
                    -0.00014,
                    3.1286
                ]
            ],
            [
                [
                    3.2078,
                    0.0002,
                    0.0
                ],
                [
                    -0.0,
                    3.27767,
                    -0.0
                ],
                [
                    0.0,
                    0.00014,
                    3.1286
                ]
            ],
            [
                [
                    -0.81872,
                    7e-05,
                    5e-05
                ],
                [
                    -0.0,
                    -1.95051,
                    -0.97654
                ],
                [
                    0.0,
                    -1.21128,
                    -2.18263
                ]
            ],
            [
                [
                    -0.81872,
                    -7e-05,
                    5e-05
                ],
                [
                    -0.0,
                    -1.9503,
                    0.97651
                ],
                [
                    0.0,
                    1.21128,
                    -2.18263
                ]
            ],
            [
                [
                    -0.81872,
                    -7e-05,
                    -5e-05
                ],
                [
                    -0.0,
                    -1.9503,
                    -0.97651
                ],
                [
                    0.0,
                    -1.21129,
                    -2.18261
                ]
            ],
            [
                [
                    -0.81872,
                    7e-05,
                    -5e-05
                ],
                [
                    -0.0,
                    -1.95051,
                    0.97654
                ],
                [
                    0.0,
                    1.21129,
                    -2.18261
                ]
            ],
            [
                [
                    -2.75867,
                    1.13916,
                    0.0
                ],
                [
                    1.15432,
                    -1.68601,
                    -0.0
                ],
                [
                    -2e-05,
                    0.0,
                    -1.23095
                ]
            ],
            [
                [
                    -2.75891,
                    1.13884,
                    0.0
                ],
                [
                    1.15393,
                    -1.68642,
                    -0.0
                ],
                [
                    2e-05,
                    -0.0,
                    -1.23095
                ]
            ],
            [
                [
                    -2.75891,
                    -1.13884,
                    0.0
                ],
                [
                    -1.15432,
                    -1.68601,
                    -0.0
                ],
                [
                    2e-05,
                    0.0,
                    -1.23095
                ]
            ],
            [
                [
                    -2.75867,
                    -1.13916,
                    0.0
                ],
                [
                    -1.15393,
                    -1.68642,
                    -0.0
                ],
                [
                    -2e-05,
                    -0.0,
                    -1.23095
                ]
            ]
        ]
    },
    "band_gap": 3.7376000000000005,
    "is_direct": false,
    "formula": "NaCaVO4"
}