{
    "mp_id": "mp-1193056",
    "nelements": 3,
    "nsites": 30,
    "elements": [
        "Cs",
        "Mo",
        "O"
    ],
    "structure": {
        "@module": "pymatgen.core.structure",
        "@class": "Structure",
        "charge": null,
        "lattice": {
            "matrix": [
                [
                    7.28083675,
                    -4.24290345,
                    0.00128629
                ],
                [
                    7.28083675,
                    4.24290345,
                    0.00128629
                ],
                [
                    -1.19333747,
                    0.0,
                    9.37466227
                ]
            ],
            "a": 8.426910176376298,
            "b": 8.426910176376298,
            "c": 9.450309359691225,
            "alpha": 96.25478805899195,
            "beta": 96.25478805899195,
            "gamma": 60.46293789367835,
            "volume": 579.2150473955331
        },
        "sites": [
            {
                "species": [
                    {
                        "element": "Cs",
                        "occu": 1
                    }
                ],
                "abc": [
                    0.60167642,
                    0.75683606,
                    0.6617954
                ],
                "xyz": [
                    9.101362341424002,
                    0.6583273718567582,
                    6.205855807857458
                ],
                "label": "Cs",
                "properties": {}
            },
            {
                "species": [
                    {
                        "element": "Cs",
                        "occu": 1
                    }
                ],
                "abc": [
                    0.24316394,
                    0.39832358,
                    0.8382046
                ],
                "xyz": [
                    3.6703049535759975,
                    0.6583273718567582,
                    7.858710177142543
                ],
                "label": "Cs",
                "properties": {}
            },
            {
                "species": [
                    {
                        "element": "Cs",
                        "occu": 1
                    }
                ],
                "abc": [
                    0.39832358,
                    0.24316394,
                    0.3382046
                ],
                "xyz": [
                    4.266973688575997,
                    -0.6583273718567582,
                    3.171379042142543
                ],
                "label": "Cs",
                "properties": {}
            },
            {
                "species": [
                    {
                        "element": "Cs",
                        "occu": 1
                    }
                ],
                "abc": [
                    0.75683606,
                    0.60167642,
                    0.1617954
                ],
                "xyz": [
                    9.698031076424002,
                    -0.6583273718567582,
                    1.5185246728574573
                ],
                "label": "Cs",
                "properties": {}
            },
            {
                "species": [
                    {
                        "element": "Mo",
                        "occu": 1
                    }
                ],
                "abc": [
                    0.7304463,
                    0.2695537,
                    0.75
                ],
                "xyz": [
                    6.385833647500001,
                    -1.9555228026194698,
                    7.0322829925
                ],
                "label": "Mo",
                "properties": {}
            },
            {
                "species": [
                    {
                        "element": "Mo",
                        "occu": 1
                    }
                ],
                "abc": [
                    0.2695537,
                    0.7304463,
                    0.25
                ],
                "xyz": [
                    6.982502382500001,
                    1.9555228026194698,
                    2.3449518575
                ],
                "label": "Mo",
                "properties": {}
            },
            {
                "species": [
                    {
                        "element": "Mo",
                        "occu": 1
                    }
                ],
                "abc": [
                    0.82710444,
                    0.96202879,
                    0.97629995
                ],
                "xyz": [
                    11.861331659336075,
                    0.5724709901040068,
                    9.154783649650303
                ],
                "label": "Mo",
                "properties": {}
            },
            {
                "species": [
                    {
                        "element": "Mo",
                        "occu": 1
                    }
                ],
                "abc": [
                    0.03797121,
                    0.17289556,
                    0.52370005
                ],
                "xyz": [
                    0.910335635663924,
                    0.5724709901040076,
                    4.909782335349696
                ],
                "label": "Mo",
                "properties": {}
            },
            {
                "species": [
                    {
                        "element": "Mo",
                        "occu": 1
                    }
                ],
                "abc": [
                    0.17289556,
                    0.03797121,
                    0.02370005
                ],
                "xyz": [
                    1.507004370663924,
                    -0.5724709901040076,
                    0.2224512003496968
                ],
                "label": "Mo",
                "properties": {}
            },
            {
                "species": [
                    {
                        "element": "Mo",
                        "occu": 1
                    }
                ],
                "abc": [
                    0.96202879,
                    0.82710444,
                    0.47629995
                ],
                "xyz": [
                    12.458000394336077,
                    -0.5724709901040068,
                    4.4674525146503035
                ],
                "label": "Mo",
                "properties": {}
            },
            {
                "species": [
                    {
                        "element": "O",
                        "occu": 1
                    }
                ],
                "abc": [
                    0.55245254,
                    0.34875833,
                    0.61882444
                ],
                "xyz": [
                    5.823102830191706,
                    -0.8642548663540246,
                    5.802429347951851
                ],
                "label": "O",
                "properties": {}
            },
            {
                "species": [
                    {
                        "element": "O",
                        "occu": 1
                    }
                ],
                "abc": [
                    0.65124167,
                    0.44754746,
                    0.88117556
                ],
                "xyz": [
                    6.948564464808293,
                    -0.8642548663540246,
                    8.26213663704815
                ],
                "label": "O",
                "properties": {}
            },
            {
                "species": [
                    {
                        "element": "O",
                        "occu": 1
                    }
                ],
                "abc": [
                    0.44754746,
                    0.65124167,
                    0.38117556
                ],
                "xyz": [
                    7.545233199808293,
                    0.8642548663540246,
                    3.574805502048149
                ],
                "label": "O",
                "properties": {}
            },
            {
                "species": [
                    {
                        "element": "O",
                        "occu": 1
                    }
                ],
                "abc": [
                    0.34875833,
                    0.55245254,
                    0.11882444
                ],
                "xyz": [
                    6.419771565191707,
                    0.8642548663540246,
                    1.1150982129518512
                ],
                "label": "O",
                "properties": {}
            },
            {
                "species": [
                    {
                        "element": "O",
                        "occu": 1
                    }
                ],
                "abc": [
                    0.66987837,
                    0.09407979,
                    0.81727188
                ],
                "xyz": [
                    4.5869734892090355,
                    -2.4430577815871004,
                    7.662630529509594
                ],
                "label": "O",
                "properties": {}
            },
            {
                "species": [
                    {
                        "element": "O",
                        "occu": 1
                    }
                ],
                "abc": [
                    0.90592021,
                    0.33012163,
                    0.68272812
                ],
                "xyz": [
                    8.184693805790962,
                    -2.443057781587101,
                    6.401935455490406
                ],
                "label": "O",
                "properties": {}
            },
            {
                "species": [
                    {
                        "element": "O",
                        "occu": 1
                    }
                ],
                "abc": [
                    0.33012163,
                    0.90592021,
                    0.18272812
                ],
                "xyz": [
                    8.781362540790962,
                    2.443057781587101,
                    1.714604320490406
                ],
                "label": "O",
                "properties": {}
            },
            {
                "species": [
                    {
                        "element": "O",
                        "occu": 1
                    }
                ],
                "abc": [
                    0.09407979,
                    0.66987837,
                    0.31727188
                ],
                "xyz": [
                    5.183642224209035,
                    2.4430577815871004,
                    2.975299394509594
                ],
                "label": "O",
                "properties": {}
            },
            {
                "species": [
                    {
                        "element": "O",
                        "occu": 1
                    }
                ],
                "abc": [
                    0.9514711,
                    0.09406091,
                    0.90261743
                ],
                "xyz": [
                    6.535220681415265,
                    -3.6379086532161558,
                    8.463078422634508
                ],
                "label": "O",
                "properties": {}
            },
            {
                "species": [
                    {
                        "element": "O",
                        "occu": 1
                    }
                ],
                "abc": [
                    0.90593909,
                    0.0485289,
                    0.59738257
                ],
                "xyz": [
                    6.236446613584734,
                    -3.6379086532161553,
                    5.601487562365491
                ],
                "label": "O",
                "properties": {}
            },
            {
                "species": [
                    {
                        "element": "O",
                        "occu": 1
                    }
                ],
                "abc": [
                    0.0485289,
                    0.90593909,
                    0.09738257
                ],
                "xyz": [
                    6.833115348584734,
                    3.6379086532161553,
                    0.9141564273654911
                ],
                "label": "O",
                "properties": {}
            },
            {
                "species": [
                    {
                        "element": "O",
                        "occu": 1
                    }
                ],
                "abc": [
                    0.09406091,
                    0.9514711,
                    0.40261743
                ],
                "xyz": [
                    7.131889416415265,
                    3.6379086532161558,
                    3.775747287634509
                ],
                "label": "O",
                "properties": {}
            },
            {
                "species": [
                    {
                        "element": "O",
                        "occu": 1
                    }
                ],
                "abc": [
                    0.67149719,
                    0.04424574,
                    0.10742968
                ],
                "xyz": [
                    5.083007565762568,
                    -2.6613673412225025,
                    1.0080376207476034
                ],
                "label": "O",
                "properties": {}
            },
            {
                "species": [
                    {
                        "element": "O",
                        "occu": 1
                    }
                ],
                "abc": [
                    0.95575426,
                    0.32850281,
                    0.39257032
                ],
                "xyz": [
                    8.881997199237432,
                    -2.661367341222503,
                    3.6818660942523964
                ],
                "label": "O",
                "properties": {}
            },
            {
                "species": [
                    {
                        "element": "O",
                        "occu": 1
                    }
                ],
                "abc": [
                    0.32850281,
                    0.95575426,
                    0.89257032
                ],
                "xyz": [
                    8.28532846423743,
                    2.661367341222503,
                    8.369197229252396
                ],
                "label": "O",
                "properties": {}
            },
            {
                "species": [
                    {
                        "element": "O",
                        "occu": 1
                    }
                ],
                "abc": [
                    0.04424574,
                    0.67149719,
                    0.60742968
                ],
                "xyz": [
                    4.486338830762568,
                    2.6613673412225025,
                    5.695368755747603
                ],
                "label": "O",
                "properties": {}
            },
            {
                "species": [
                    {
                        "element": "O",
                        "occu": 1
                    }
                ],
                "abc": [
                    0.87037276,
                    0.74034247,
                    0.92200413
                ],
                "xyz": [
                    10.62709256454495,
                    -0.5517059660455006,
                    8.645549177188371
                ],
                "label": "O",
                "properties": {}
            },
            {
                "species": [
                    {
                        "element": "O",
                        "occu": 1
                    }
                ],
                "abc": [
                    0.25965753,
                    0.12962724,
                    0.57799587
                ],
                "xyz": [
                    2.1445747304550484,
                    -0.5517059660455006,
                    5.419016807811628
                ],
                "label": "O",
                "properties": {}
            },
            {
                "species": [
                    {
                        "element": "O",
                        "occu": 1
                    }
                ],
                "abc": [
                    0.12962724,
                    0.25965753,
                    0.07799587
                ],
                "xyz": [
                    2.7412434654550486,
                    0.5517059660455006,
                    0.7316856728116282
                ],
                "label": "O",
                "properties": {}
            },
            {
                "species": [
                    {
                        "element": "O",
                        "occu": 1
                    }
                ],
                "abc": [
                    0.74034247,
                    0.87037276,
                    0.42200413
                ],
                "xyz": [
                    11.22376129954495,
                    0.5517059660455006,
                    3.958218042188372
                ],
                "label": "O",
                "properties": {}
            }
        ]
    },
    "spacegroup": {
        "source": "spglib",
        "symbol": "C2/c",
        "number": 15,
        "point_group": "2/m",
        "crystal_system": "monoclinic",
        "hall": "-C 2yc"
    },
    "dielectric": {
        "epsilon_ionic": [
            [
                4.23112471,
                -7.2e-07,
                -0.36877588
            ],
            [
                -7.2e-07,
                3.3473356,
                -3.1e-07
            ],
            [
                -0.36877588,
                -3.1e-07,
                5.68582005
            ]
        ],
        "epsilon_ionic_avg": 4.421426786666667,
        "epsilon_ionic_eig": [
            5.773966268833153,
            4.142978491167605,
            3.3473355999992442
        ],
        "epsilon_electronic": [
            [
                3.19624781,
                0.0,
                -0.09468849
            ],
            [
                0.0,
                3.09907943,
                0.0
            ],
            [
                -0.09468609,
                0.0,
                3.43846817
            ]
        ],
        "epsilon_electronic_avg": 3.24459847,
        "epsilon_electronic_eig": [
            3.163626540433763,
            3.4710894395662373,
            3.09907943
        ]
    },
    "phonon": {
        "lowest_freq": -0.11364382816836685,
        "frequency": [
            -0.11364382816836685,
            -0.11212104829197896,
            -0.047199433501612716,
            1.0196558539904585,
            1.2304119720389073,
            1.2668900802401526,
            1.4907277875408242,
            1.497531023098513,
            1.6162765746986139,
            1.6633103219141723,
            1.6999729654123892,
            1.7199402553266712,
            1.7315278813001065,
            1.790479375365394,
            1.9094524726415543,
            1.9514431080141157,
            1.960165074161293,
            2.0220777640293046,
            2.1935688140145055,
            2.25079430606627,
            2.557196987720299,
            2.5944612059224665,
            2.598125560474023,
            2.794961833254059,
            2.8250986803055285,
            2.8341807522708713,
            2.980977513632176,
            3.1292067549674853,
            3.887079346466809,
            3.986015898477161,
            4.169121632590139,
            4.724564308678624,
            4.829512969178468,
            5.426465771689202,
            5.667290707627725,
            5.695674182973865,
            5.8690366554911355,
            5.899824706408038,
            6.0206431672703795,
            6.0298354922141755,
            6.231133505387383,
            6.274229525237746,
            6.638370208222049,
            7.054020479287571,
            7.454022149526456,
            7.514858641579643,
            7.5346878196641995,
            7.726264363995593,
            8.18702052069736,
            8.224210322828414,
            8.883698836381638,
            9.09099572480334,
            9.458783821879482,
            9.807836107550287,
            9.809220003607098,
            9.828189275114566,
            10.114417279851365,
            10.278321944185535,
            10.433059530956578,
            10.469068142696171,
            10.883633421928502,
            10.90964196393791,
            14.209832789814184,
            14.419013983403445,
            14.442986120343543,
            15.105303577636345,
            16.111904253353526,
            16.429811875620157,
            16.85046180044472,
            17.0016894457325,
            17.174668591624382,
            18.75745028586596,
            19.952615164161493,
            20.855080870538313,
            21.400090319354025,
            21.59351325681651,
            21.6879613721185,
            22.46073054093235,
            26.202884443321473,
            26.512603052693393,
            26.572705384912673,
            26.751934869551302,
            26.766699489283802,
            26.948116850677593,
            27.325739558861585,
            27.331813661395753,
            27.466483923021606,
            27.8028976802773,
            27.9218989835914,
            28.253442334430932
        ]
    },
    "born_effective_charge": {
        "avg_abs_trace": 2.049793111111111,
        "tensors": [
            [
                [
                    1.53441,
                    -0.1521,
                    0.03877
                ],
                [
                    0.02385,
                    1.49467,
                    -0.06949
                ],
                [
                    0.04498,
                    0.07386,
                    1.44483
                ]
            ],
            [
                [
                    1.53428,
                    0.15202,
                    0.03871
                ],
                [
                    -0.02385,
                    1.49467,
                    0.06949
                ],
                [
                    0.04496,
                    -0.07385,
                    1.44486
                ]
            ],
            [
                [
                    1.53428,
                    -0.15202,
                    0.03871
                ],
                [
                    0.02381,
                    1.49476,
                    -0.06952
                ],
                [
                    0.04496,
                    0.07385,
                    1.44486
                ]
            ],
            [
                [
                    1.53441,
                    0.1521,
                    0.03877
                ],
                [
                    -0.02381,
                    1.49476,
                    0.06952
                ],
                [
                    0.04498,
                    -0.07386,
                    1.44483
                ]
            ],
            [
                [
                    4.32887,
                    -0.0004,
                    0.00545
                ],
                [
                    -0.0,
                    4.23157,
                    0.0
                ],
                [
                    -1.91258,
                    -0.00014,
                    5.91534
                ]
            ],
            [
                [
                    4.32887,
                    0.0004,
                    0.00545
                ],
                [
                    0.0,
                    4.23177,
                    0.0
                ],
                [
                    -1.91258,
                    0.00014,
                    5.91534
                ]
            ],
            [
                [
                    3.55127,
                    0.07573,
                    -0.31269
                ],
                [
                    -0.693,
                    3.44993,
                    -0.79072
                ],
                [
                    0.67027,
                    -1.29965,
                    4.34647
                ]
            ],
            [
                [
                    3.55258,
                    -0.07615,
                    -0.31274
                ],
                [
                    0.693,
                    3.44993,
                    0.79072
                ],
                [
                    0.67012,
                    1.29977,
                    4.34652
                ]
            ],
            [
                [
                    3.55258,
                    0.07615,
                    -0.31274
                ],
                [
                    -0.69318,
                    3.44989,
                    -0.79099
                ],
                [
                    0.67012,
                    -1.29977,
                    4.34652
                ]
            ],
            [
                [
                    3.55127,
                    -0.07573,
                    -0.31269
                ],
                [
                    0.69318,
                    3.44989,
                    0.79099
                ],
                [
                    0.67027,
                    1.29965,
                    4.34647
                ]
            ],
            [
                [
                    -0.97241,
                    0.41331,
                    -0.46602
                ],
                [
                    0.56438,
                    -1.47101,
                    1.01876
                ],
                [
                    -0.37386,
                    0.72656,
                    -1.8133
                ]
            ],
            [
                [
                    -0.97096,
                    -0.41139,
                    -0.46246
                ],
                [
                    -0.56438,
                    -1.47101,
                    -1.01876
                ],
                [
                    -0.37404,
                    -0.72783,
                    -1.81447
                ]
            ],
            [
                [
                    -0.97096,
                    0.41139,
                    -0.46246
                ],
                [
                    0.56537,
                    -1.47278,
                    1.02007
                ],
                [
                    -0.37404,
                    0.72783,
                    -1.81447
                ]
            ],
            [
                [
                    -0.97241,
                    -0.41331,
                    -0.46602
                ],
                [
                    -0.56537,
                    -1.47278,
                    -1.02007
                ],
                [
                    -0.37386,
                    -0.72656,
                    -1.8133
                ]
            ],
            [
                [
                    -1.84864,
                    -0.60135,
                    0.79222
                ],
                [
                    -0.40661,
                    -1.55938,
                    1.14157
                ],
                [
                    1.11201,
                    1.5912,
                    -2.37523
                ]
            ],
            [
                [
                    -1.8496,
                    0.59935,
                    0.79114
                ],
                [
                    0.40661,
                    -1.55938,
                    -1.14157
                ],
                [
                    1.11161,
                    -1.59129,
                    -2.37583
                ]
            ],
            [
                [
                    -1.8496,
                    -0.59935,
                    0.79114
                ],
                [
                    -0.40661,
                    -1.5592,
                    1.14179
                ],
                [
                    1.11161,
                    1.59129,
                    -2.37583
                ]
            ],
            [
                [
                    -1.84864,
                    0.60135,
                    0.79222
                ],
                [
                    0.40661,
                    -1.5592,
                    -1.14179
                ],
                [
                    1.11201,
                    -1.5912,
                    -2.37523
                ]
            ],
            [
                [
                    -1.8689,
                    0.70819,
                    -0.35051
                ],
                [
                    0.83758,
                    -1.51171,
                    1.08606
                ],
                [
                    -0.5302,
                    1.59834,
                    -2.05421
                ]
            ],
            [
                [
                    -1.86959,
                    -0.70884,
                    -0.35113
                ],
                [
                    -0.83758,
                    -1.51171,
                    -1.08606
                ],
                [
                    -0.53042,
                    -1.59864,
                    -2.05379
                ]
            ],
            [
                [
                    -1.86959,
                    0.70884,
                    -0.35113
                ],
                [
                    0.83749,
                    -1.51111,
                    1.08602
                ],
                [
                    -0.53042,
                    1.59864,
                    -2.05379
                ]
            ],
            [
                [
                    -1.8689,
                    -0.70819,
                    -0.35051
                ],
                [
                    -0.83749,
                    -1.51111,
                    -1.08602
                ],
                [
                    -0.5302,
                    -1.59834,
                    -2.05421
                ]
            ],
            [
                [
                    -0.86347,
                    0.70512,
                    0.74681
                ],
                [
                    0.47394,
                    -1.24597,
                    -0.6571
                ],
                [
                    0.48787,
                    -0.66607,
                    -1.56478
                ]
            ],
            [
                [
                    -0.86292,
                    -0.70401,
                    0.74603
                ],
                [
                    -0.47394,
                    -1.24597,
                    0.6571
                ],
                [
                    0.4884,
                    0.66595,
                    -1.5656
                ]
            ],
            [
                [
                    -0.86292,
                    0.70401,
                    0.74603
                ],
                [
                    0.47327,
                    -1.2452,
                    -0.65567
                ],
                [
                    0.4884,
                    -0.66595,
                    -1.5656
                ]
            ],
            [
                [
                    -0.86347,
                    -0.70512,
                    0.74681
                ],
                [
                    -0.47327,
                    -1.2452,
                    0.65567
                ],
                [
                    0.48787,
                    0.66607,
                    -1.56478
                ]
            ],
            [
                [
                    -1.69588,
                    -1.00147,
                    -0.45058
                ],
                [
                    -0.6722,
                    -1.27243,
                    -0.14224
                ],
                [
                    -0.45495,
                    -0.2242,
                    -0.94054
                ]
            ],
            [
                [
                    -1.69903,
                    1.00472,
                    -0.45297
                ],
                [
                    0.6722,
                    -1.27243,
                    0.14224
                ],
                [
                    -0.45416,
                    0.22338,
                    -0.94026
                ]
            ],
            [
                [
                    -1.69903,
                    -1.00472,
                    -0.45297
                ],
                [
                    -0.67195,
                    -1.27214,
                    -0.14175
                ],
                [
                    -0.45416,
                    -0.22338,
                    -0.94026
                ]
            ],
            [
                [
                    -1.69588,
                    1.00147,
                    -0.45058
                ],
                [
                    0.67195,
                    -1.27214,
                    0.14175
                ],
                [
                    -0.45495,
                    0.2242,
                    -0.94054
                ]
            ]
        ]
    },
    "band_gap": 3.2961,
    "is_direct": false,
    "formula": "Cs2Mo3O10"
}