{
    "mp_id": "mp-18764",
    "nelements": 4,
    "nsites": 10,
    "elements": [
        "Ba",
        "O",
        "Sr",
        "W"
    ],
    "structure": {
        "@module": "pymatgen.core.structure",
        "@class": "Structure",
        "charge": null,
        "lattice": {
            "matrix": [
                [
                    5.20493025,
                    -3.00681991,
                    -0.00026757
                ],
                [
                    5.20493025,
                    3.00681991,
                    -0.00026757
                ],
                [
                    -3.50914478,
                    0.0,
                    5.02374262
                ]
            ],
            "a": 6.011011973880203,
            "b": 6.011011973880203,
            "c": 6.127975766842238,
            "alpha": 119.72831786517546,
            "beta": 119.72831786517546,
            "gamma": 60.02892517463577,
            "volume": 157.24039027768092
        },
        "sites": [
            {
                "species": [
                    {
                        "element": "Ba",
                        "occu": 1
                    }
                ],
                "abc": [
                    0.75261115,
                    0.75261115,
                    0.26021191
                ],
                "xyz": [
                    6.921455816574246,
                    0.0,
                    1.3068349101677932
                ],
                "label": "Ba",
                "properties": {}
            },
            {
                "species": [
                    {
                        "element": "Ba",
                        "occu": 1
                    }
                ],
                "abc": [
                    0.24738885,
                    0.24738885,
                    0.73978809
                ],
                "xyz": [
                    -0.020740096574245026,
                    0.0,
                    3.716372569832207
                ],
                "label": "Ba",
                "properties": {}
            },
            {
                "species": [
                    {
                        "element": "Sr",
                        "occu": 1
                    }
                ],
                "abc": [
                    0.0,
                    0.0,
                    0.0
                ],
                "xyz": [
                    0.0,
                    0.0,
                    0.0
                ],
                "label": "Sr",
                "properties": {}
            },
            {
                "species": [
                    {
                        "element": "W",
                        "occu": 1
                    }
                ],
                "abc": [
                    0.5,
                    0.5,
                    0.5
                ],
                "xyz": [
                    3.4503578600000004,
                    0.0,
                    2.51160374
                ],
                "label": "W",
                "properties": {}
            },
            {
                "species": [
                    {
                        "element": "O",
                        "occu": 1
                    }
                ],
                "abc": [
                    0.31477705,
                    0.76774329,
                    0.32328713
                ],
                "xyz": [
                    4.499981519225604,
                    1.3619879089898381,
                    1.6238216835111066
                ],
                "label": "O",
                "properties": {}
            },
            {
                "species": [
                    {
                        "element": "O",
                        "occu": 1
                    }
                ],
                "abc": [
                    0.23225671,
                    0.68522295,
                    0.67671287
                ],
                "xyz": [
                    2.4007342007743966,
                    1.3619879089898381,
                    3.3993857964888936
                ],
                "label": "O",
                "properties": {}
            },
            {
                "species": [
                    {
                        "element": "O",
                        "occu": 1
                    }
                ],
                "abc": [
                    0.68522295,
                    0.23225671,
                    0.67671287
                ],
                "xyz": [
                    2.4007342007743966,
                    -1.3619879089898381,
                    3.3993857964888936
                ],
                "label": "O",
                "properties": {}
            },
            {
                "species": [
                    {
                        "element": "O",
                        "occu": 1
                    }
                ],
                "abc": [
                    0.76774329,
                    0.31477705,
                    0.32328713
                ],
                "xyz": [
                    4.499981519225604,
                    -1.3619879089898381,
                    1.6238216835111066
                ],
                "label": "O",
                "properties": {}
            },
            {
                "species": [
                    {
                        "element": "O",
                        "occu": 1
                    }
                ],
                "abc": [
                    0.2807295,
                    0.2807295,
                    0.20740888
                ],
                "xyz": [
                    2.194527144657104,
                    0.0,
                    1.0418186006378356
                ],
                "label": "O",
                "properties": {}
            },
            {
                "species": [
                    {
                        "element": "O",
                        "occu": 1
                    }
                ],
                "abc": [
                    0.7192705,
                    0.7192705,
                    0.79259112
                ],
                "xyz": [
                    4.706188575342898,
                    0.0,
                    3.9813888793621643
                ],
                "label": "O",
                "properties": {}
            }
        ]
    },
    "spacegroup": {
        "source": "spglib",
        "symbol": "C2/m",
        "number": 12,
        "point_group": "2/m",
        "crystal_system": "monoclinic",
        "hall": "-C 2y"
    },
    "dielectric": {
        "epsilon_ionic": [
            [
                17.68281416,
                1e-08,
                1.29890474
            ],
            [
                1e-08,
                23.21039786,
                -1e-08
            ],
            [
                1.29890474,
                -1e-08,
                13.17390217
            ]
        ],
        "epsilon_ionic_avg": 18.022371396666667,
        "epsilon_ionic_eig": [
            12.826488576226208,
            18.030227753773794,
            23.210397860000004
        ],
        "epsilon_electronic": [
            [
                4.44395176,
                0.0,
                -0.01769307
            ],
            [
                0.0,
                4.43486477,
                0.0
            ],
            [
                -0.01768876,
                0.0,
                4.45592962
            ]
        ],
        "epsilon_electronic_avg": 4.444915383333334,
        "epsilon_electronic_eig": [
            4.431263544837045,
            4.468617835162955,
            4.43486477
        ]
    },
    "phonon": {
        "lowest_freq": -0.02662870139521122,
        "frequency": [
            -0.02662870139521122,
            -0.015741749191524955,
            -0.008364558198499062,
            1.8885909204034415,
            2.375967804876604,
            2.7562210570675436,
            2.981071903279638,
            3.2297802208450492,
            3.304836773618924,
            3.392729150971441,
            3.68775159435833,
            5.047434230153798,
            5.140626933583595,
            5.688696533115401,
            5.699069308597523,
            5.821341998995837,
            6.8250542721771845,
            7.937797505991543,
            8.547916676361996,
            9.01457492109061,
            9.359485709707666,
            11.635752111536242,
            11.861928453408922,
            12.34747672793158,
            16.58045148137568,
            16.695252040518852,
            16.96446331273703,
            17.03115755691375,
            17.081345678869987,
            23.32425066038588
        ]
    },
    "born_effective_charge": {
        "avg_abs_trace": 3.1193296666666663,
        "tensors": [
            [
                [
                    2.67533,
                    -0.0,
                    -0.01285
                ],
                [
                    4e-05,
                    2.72873,
                    0.00015
                ],
                [
                    -0.1867,
                    0.0,
                    2.73969
                ]
            ],
            [
                [
                    2.67546,
                    -0.0,
                    -0.01271
                ],
                [
                    -4e-05,
                    2.72873,
                    -0.00015
                ],
                [
                    -0.18664,
                    0.0,
                    2.73932
                ]
            ],
            [
                [
                    3.07357,
                    -0.0,
                    -0.29712
                ],
                [
                    -0.0,
                    3.03283,
                    0.0
                ],
                [
                    0.25728,
                    0.0,
                    3.28002
                ]
            ],
            [
                [
                    7.21837,
                    -0.0,
                    -0.16594
                ],
                [
                    -0.0,
                    6.9944,
                    0.0
                ],
                [
                    0.29356,
                    0.0,
                    6.9035
                ]
            ],
            [
                [
                    -2.49192,
                    -0.91389,
                    0.69257
                ],
                [
                    -0.90993,
                    -3.02455,
                    0.7653
                ],
                [
                    0.56809,
                    0.73036,
                    -2.28292
                ]
            ],
            [
                [
                    -2.49211,
                    0.9139,
                    0.69238
                ],
                [
                    0.90993,
                    -3.02455,
                    -0.7653
                ],
                [
                    0.56852,
                    -0.7303,
                    -2.28262
                ]
            ],
            [
                [
                    -2.49211,
                    -0.9139,
                    0.69238
                ],
                [
                    -0.9101,
                    -3.02463,
                    0.76539
                ],
                [
                    0.56852,
                    0.7303,
                    -2.28262
                ]
            ],
            [
                [
                    -2.49192,
                    0.91389,
                    0.69257
                ],
                [
                    0.9101,
                    -3.02463,
                    -0.76539
                ],
                [
                    0.56809,
                    -0.73036,
                    -2.28292
                ]
            ],
            [
                [
                    -2.83723,
                    -0.0,
                    -1.14051
                ],
                [
                    0.00012,
                    -1.69316,
                    0.00013
                ],
                [
                    -1.22568,
                    0.0,
                    -3.26572
                ]
            ],
            [
                [
                    -2.83744,
                    -0.0,
                    -1.14077
                ],
                [
                    -0.00012,
                    -1.69316,
                    -0.00013
                ],
                [
                    -1.22504,
                    0.0,
                    -3.26573
                ]
            ]
        ]
    },
    "band_gap": 3.0303999999999998,
    "is_direct": false,
    "formula": "Ba2SrWO6"
}