{
    "mp_id": "mp-19324",
    "nelements": 4,
    "nsites": 20,
    "elements": [
        "Ca",
        "Mg",
        "O",
        "W"
    ],
    "structure": {
        "@module": "pymatgen.core.structure",
        "@class": "Structure",
        "charge": null,
        "lattice": {
            "matrix": [
                [
                    5.38241346,
                    0.0,
                    -0.00056271
                ],
                [
                    0.0,
                    5.55241095,
                    0.0
                ],
                [
                    -5.35747218,
                    0.0,
                    7.68467835
                ]
            ],
            "a": 5.38241348941455,
            "b": 5.55241095,
            "c": 9.367859387417846,
            "alpha": 90.0,
            "beta": 124.88876589653447,
            "gamma": 90.0,
            "volume": 229.642727959925
        },
        "sites": [
            {
                "species": [
                    {
                        "element": "Ca",
                        "occu": 1
                    }
                ],
                "abc": [
                    0.23490928,
                    0.05273446,
                    0.24746546
                ],
                "xyz": [
                    -0.061410446909993865,
                    0.29280339314633697,
                    1.9015602770338422
                ],
                "label": "Ca",
                "properties": {}
            },
            {
                "species": [
                    {
                        "element": "Ca",
                        "occu": 1
                    }
                ],
                "abc": [
                    0.76509072,
                    0.55273446,
                    0.25253454
                ],
                "xyz": [
                    2.765087816909995,
                    3.069008868146337,
                    1.9402161879661577
                ],
                "label": "Ca",
                "properties": {}
            },
            {
                "species": [
                    {
                        "element": "Ca",
                        "occu": 1
                    }
                ],
                "abc": [
                    0.23490928,
                    0.44726554,
                    0.74746546
                ],
                "xyz": [
                    -2.7401465369099944,
                    2.483402081853663,
                    5.743899452033843
                ],
                "label": "Ca",
                "properties": {}
            },
            {
                "species": [
                    {
                        "element": "Ca",
                        "occu": 1
                    }
                ],
                "abc": [
                    0.76509072,
                    0.94726554,
                    0.75253454
                ],
                "xyz": [
                    0.08635172690999493,
                    5.259607556853663,
                    5.782555362966158
                ],
                "label": "Ca",
                "properties": {}
            },
            {
                "species": [
                    {
                        "element": "Mg",
                        "occu": 1
                    }
                ],
                "abc": [
                    0.0,
                    0.5,
                    0.0
                ],
                "xyz": [
                    0.0,
                    2.776205475,
                    0.0
                ],
                "label": "Mg",
                "properties": {}
            },
            {
                "species": [
                    {
                        "element": "Mg",
                        "occu": 1
                    }
                ],
                "abc": [
                    0.0,
                    0.0,
                    0.5
                ],
                "xyz": [
                    -2.67873609,
                    0.0,
                    3.842339175
                ],
                "label": "Mg",
                "properties": {}
            },
            {
                "species": [
                    {
                        "element": "W",
                        "occu": 1
                    }
                ],
                "abc": [
                    0.5,
                    0.0,
                    0.0
                ],
                "xyz": [
                    2.69120673,
                    0.0,
                    -0.000281355
                ],
                "label": "W",
                "properties": {}
            },
            {
                "species": [
                    {
                        "element": "W",
                        "occu": 1
                    }
                ],
                "abc": [
                    0.5,
                    0.5,
                    0.5
                ],
                "xyz": [
                    0.012470640000000088,
                    2.776205475,
                    3.8420578200000004
                ],
                "label": "W",
                "properties": {}
            },
            {
                "species": [
                    {
                        "element": "O",
                        "occu": 1
                    }
                ],
                "abc": [
                    0.16654707,
                    0.30524623,
                    0.45485514
                ],
                "xyz": [
                    -1.5404485671884431,
                    1.6948525098982183,
                    3.4953217290424594
                ],
                "label": "O",
                "properties": {}
            },
            {
                "species": [
                    {
                        "element": "O",
                        "occu": 1
                    }
                ],
                "abc": [
                    0.83345293,
                    0.80524623,
                    0.04514486
                ],
                "xyz": [
                    4.244125937188444,
                    4.471057984898218,
                    0.3464547359575407
                ],
                "label": "O",
                "properties": {}
            },
            {
                "species": [
                    {
                        "element": "O",
                        "occu": 1
                    }
                ],
                "abc": [
                    0.83345293,
                    0.69475377,
                    0.54514486
                ],
                "xyz": [
                    1.565389847188444,
                    3.8575584401017817,
                    4.18879391095754
                ],
                "label": "O",
                "properties": {}
            },
            {
                "species": [
                    {
                        "element": "O",
                        "occu": 1
                    }
                ],
                "abc": [
                    0.16654707,
                    0.19475377,
                    0.95485514
                ],
                "xyz": [
                    -4.2191846571884435,
                    1.0813529651017815,
                    7.33766090404246
                ],
                "label": "O",
                "properties": {}
            },
            {
                "species": [
                    {
                        "element": "O",
                        "occu": 1
                    }
                ],
                "abc": [
                    0.74274884,
                    0.21490729,
                    0.5514971
                ],
                "xyz": [
                    1.0431509832147086,
                    1.1932535902308254,
                    4.237659872258029
                ],
                "label": "O",
                "properties": {}
            },
            {
                "species": [
                    {
                        "element": "O",
                        "occu": 1
                    }
                ],
                "abc": [
                    0.25725116,
                    0.71490729,
                    0.9485029
                ],
                "xyz": [
                    -3.6969457932147085,
                    3.9694590652308253,
                    7.288794942741972
                ],
                "label": "O",
                "properties": {}
            },
            {
                "species": [
                    {
                        "element": "O",
                        "occu": 1
                    }
                ],
                "abc": [
                    0.25725116,
                    0.78509271,
                    0.4485029
                ],
                "xyz": [
                    -1.0182097032147086,
                    4.359157359769174,
                    3.4464557677419716
                ],
                "label": "O",
                "properties": {}
            },
            {
                "species": [
                    {
                        "element": "O",
                        "occu": 1
                    }
                ],
                "abc": [
                    0.74274884,
                    0.28509271,
                    0.0514971
                ],
                "xyz": [
                    3.7218870732147087,
                    1.5829518847691746,
                    0.3953206972580286
                ],
                "label": "O",
                "properties": {}
            },
            {
                "species": [
                    {
                        "element": "O",
                        "occu": 1
                    }
                ],
                "abc": [
                    0.35149193,
                    0.47004748,
                    0.25909231
                ],
                "xyz": [
                    0.503795052236442,
                    2.6098967749719058,
                    1.9908432772845581
                ],
                "label": "O",
                "properties": {}
            },
            {
                "species": [
                    {
                        "element": "O",
                        "occu": 1
                    }
                ],
                "abc": [
                    0.64850807,
                    0.97004748,
                    0.24090769
                ],
                "xyz": [
                    2.1998823177635582,
                    5.386102249971906,
                    1.850933187715442
                ],
                "label": "O",
                "properties": {}
            },
            {
                "species": [
                    {
                        "element": "O",
                        "occu": 1
                    }
                ],
                "abc": [
                    0.64850807,
                    0.52995252,
                    0.74090769
                ],
                "xyz": [
                    -0.4788537722364423,
                    2.942514175028094,
                    5.693272362715442
                ],
                "label": "O",
                "properties": {}
            },
            {
                "species": [
                    {
                        "element": "O",
                        "occu": 1
                    }
                ],
                "abc": [
                    0.35149193,
                    0.02995252,
                    0.75909231
                ],
                "xyz": [
                    -2.174941037763558,
                    0.16630870002809398,
                    5.833182452284558
                ],
                "label": "O",
                "properties": {}
            }
        ]
    },
    "spacegroup": {
        "source": "spglib",
        "symbol": "P2_1/c",
        "number": 14,
        "point_group": "2/m",
        "crystal_system": "monoclinic",
        "hall": "-P 2ybc"
    },
    "dielectric": {
        "epsilon_ionic": [
            [
                13.49687011,
                1e-08,
                0.10539355
            ],
            [
                1e-08,
                12.9850835,
                1e-08
            ],
            [
                0.10539355,
                1e-08,
                16.09034794
            ]
        ],
        "epsilon_ionic_avg": 14.19076718333334,
        "epsilon_ionic_eig": [
            16.09462386506025,
            13.492594184939765,
            12.985083500000002
        ],
        "epsilon_electronic": [
            [
                4.36653818,
                0.0,
                0.06775143
            ],
            [
                0.0,
                4.37647434,
                0.0
            ],
            [
                0.06774956,
                0.0,
                4.33057328
            ]
        ],
        "epsilon_electronic_avg": 4.357861933333333,
        "epsilon_electronic_eig": [
            4.418652078548789,
            4.278459381451212,
            4.37647434
        ]
    },
    "phonon": {
        "lowest_freq": -0.055215939189469196,
        "frequency": [
            -0.055215939189469196,
            -0.023672627499639554,
            -0.017418901005155488,
            2.750567483716972,
            3.2124473932061512,
            4.368972532092393,
            4.448253555295312,
            4.490482162255796,
            4.969218868075165,
            5.185900467468249,
            5.1892410360210475,
            5.402325619725745,
            5.406088396411471,
            5.587582118765999,
            5.904727221664236,
            6.064368381896898,
            6.15025990458203,
            6.327177073241358,
            6.61838828529769,
            7.386089304599613,
            7.582894176637295,
            7.5978502160657175,
            7.699863078090671,
            7.925330765802882,
            8.295987371021692,
            8.527790017045414,
            8.573797158686983,
            9.127100977336665,
            9.1762448652046,
            9.190976784569598,
            9.43888589180134,
            9.463924246978902,
            9.664926493467297,
            10.068442101615485,
            10.389406903404264,
            10.70721632131705,
            11.01511639139753,
            11.322728467637186,
            11.61361566935848,
            11.86134981406461,
            12.449303328210176,
            12.880845637946843,
            13.038635595209826,
            13.644779184832363,
            13.776791023232894,
            13.844784023037043,
            14.229866980223788,
            14.51222082756606,
            17.365148299337342,
            17.641966927896465,
            17.723641193226268,
            18.166715366774007,
            18.253472469874836,
            18.69306828624376,
            18.94657724226885,
            19.003085309139102,
            19.648268870109266,
            21.255103055287492,
            23.414849974184722,
            23.71814016267985
        ]
    },
    "born_effective_charge": {
        "avg_abs_trace": 2.852435333333333,
        "tensors": [
            [
                [
                    2.51725,
                    0.12686,
                    0.16877
                ],
                [
                    0.16866,
                    2.45246,
                    0.10297
                ],
                [
                    -0.09393,
                    0.27497,
                    2.40357
                ]
            ],
            [
                [
                    2.51712,
                    -0.12686,
                    0.16887
                ],
                [
                    -0.16866,
                    2.45246,
                    -0.10297
                ],
                [
                    -0.09412,
                    -0.27512,
                    2.40357
                ]
            ],
            [
                [
                    2.51725,
                    -0.12686,
                    0.16877
                ],
                [
                    -0.16835,
                    2.45242,
                    -0.10308
                ],
                [
                    -0.09393,
                    -0.27497,
                    2.40357
                ]
            ],
            [
                [
                    2.51712,
                    0.12686,
                    0.16887
                ],
                [
                    0.16835,
                    2.45242,
                    0.10308
                ],
                [
                    -0.09412,
                    0.27512,
                    2.40357
                ]
            ],
            [
                [
                    2.61018,
                    -0.24909,
                    -0.34221
                ],
                [
                    0.22622,
                    2.73716,
                    -0.01335
                ],
                [
                    0.32348,
                    -0.1031,
                    2.65859
                ]
            ],
            [
                [
                    2.61018,
                    0.24909,
                    -0.34221
                ],
                [
                    -0.22622,
                    2.73716,
                    0.01335
                ],
                [
                    0.32348,
                    0.1031,
                    2.65859
                ]
            ],
            [
                [
                    6.7282,
                    0.2082,
                    0.12686
                ],
                [
                    0.22616,
                    6.65266,
                    -0.14256
                ],
                [
                    0.1486,
                    -0.01835,
                    6.65334
                ]
            ],
            [
                [
                    6.7282,
                    -0.2082,
                    0.12686
                ],
                [
                    -0.22616,
                    6.65266,
                    0.14256
                ],
                [
                    0.1486,
                    0.01835,
                    6.65334
                ]
            ],
            [
                [
                    -3.04791,
                    -0.81153,
                    -0.29778
                ],
                [
                    -0.83167,
                    -2.24866,
                    -0.2921
                ],
                [
                    -0.36479,
                    -0.16906,
                    -1.77697
                ]
            ],
            [
                [
                    -3.0478,
                    0.81144,
                    -0.29772
                ],
                [
                    0.83167,
                    -2.24866,
                    0.2921
                ],
                [
                    -0.36484,
                    0.16914,
                    -1.77692
                ]
            ],
            [
                [
                    -3.0478,
                    -0.81144,
                    -0.29772
                ],
                [
                    -0.8314,
                    -2.24837,
                    -0.29199
                ],
                [
                    -0.36484,
                    -0.16914,
                    -1.77692
                ]
            ],
            [
                [
                    -3.04791,
                    0.81153,
                    -0.29778
                ],
                [
                    0.8314,
                    -2.24837,
                    0.29199
                ],
                [
                    -0.36479,
                    0.16906,
                    -1.77697
                ]
            ],
            [
                [
                    -2.19703,
                    0.87621,
                    -0.3459
                ],
                [
                    0.88759,
                    -3.19506,
                    0.51549
                ],
                [
                    -0.38667,
                    0.4518,
                    -1.79037
                ]
            ],
            [
                [
                    -2.19691,
                    -0.87596,
                    -0.34583
                ],
                [
                    -0.88759,
                    -3.19506,
                    -0.51549
                ],
                [
                    -0.38668,
                    -0.45171,
                    -1.79036
                ]
            ],
            [
                [
                    -2.19691,
                    0.87596,
                    -0.34583
                ],
                [
                    0.88726,
                    -3.19538,
                    0.51589
                ],
                [
                    -0.38668,
                    0.45171,
                    -1.79036
                ]
            ],
            [
                [
                    -2.19703,
                    -0.87621,
                    -0.3459
                ],
                [
                    -0.88726,
                    -3.19538,
                    -0.51589
                ],
                [
                    -0.38667,
                    -0.4518,
                    -1.79037
                ]
            ],
            [
                [
                    -1.94156,
                    -0.03888,
                    0.58244
                ],
                [
                    -0.11543,
                    -1.70358,
                    -0.2434
                ],
                [
                    0.60949,
                    -0.28142,
                    -3.49228
                ]
            ],
            [
                [
                    -1.94154,
                    0.03887,
                    0.58253
                ],
                [
                    0.11543,
                    -1.70358,
                    0.2434
                ],
                [
                    0.60945,
                    0.28133,
                    -3.49217
                ]
            ],
            [
                [
                    -1.94154,
                    -0.03887,
                    0.58253
                ],
                [
                    -0.11546,
                    -1.70367,
                    -0.24332
                ],
                [
                    0.60945,
                    -0.28133,
                    -3.49217
                ]
            ],
            [
                [
                    -1.94156,
                    0.03888,
                    0.58244
                ],
                [
                    0.11546,
                    -1.70367,
                    0.24332
                ],
                [
                    0.60949,
                    0.28142,
                    -3.49228
                ]
            ]
        ]
    },
    "band_gap": 3.5835999999999997,
    "is_direct": false,
    "formula": "Ca2MgWO6"
}