{
    "mp_id": "mp-1226151",
    "nelements": 4,
    "nsites": 16,
    "elements": [
        "B",
        "Cs",
        "O",
        "Si"
    ],
    "structure": {
        "@module": "pymatgen.core.structure",
        "@class": "Structure",
        "charge": null,
        "lattice": {
            "matrix": [
                [
                    4.66915363,
                    -5.04078275,
                    -5.457e-05
                ],
                [
                    4.66915363,
                    5.04078275,
                    -5.457e-05
                ],
                [
                    -4.65288635,
                    0.0,
                    4.81248127
                ]
            ],
            "a": 6.870988746622834,
            "b": 6.870988746622834,
            "c": 6.693976946488323,
            "alpha": 118.18684173894222,
            "beta": 118.18684173894222,
            "gamma": 94.3836317028698,
            "volume": 226.53237839297978
        },
        "sites": [
            {
                "species": [
                    {
                        "element": "Cs",
                        "occu": 1
                    }
                ],
                "abc": [
                    0.52292309,
                    0.47707691,
                    0.0
                ],
                "xyz": [
                    4.66915363,
                    -0.23110063329739505,
                    -5.457e-05
                ],
                "label": "Cs",
                "properties": {}
            },
            {
                "species": [
                    {
                        "element": "Cs",
                        "occu": 1
                    }
                ],
                "abc": [
                    0.24204971,
                    0.75795029,
                    0.5
                ],
                "xyz": [
                    2.342710455,
                    2.6005427443789952,
                    2.406186065
                ],
                "label": "Cs",
                "properties": {}
            },
            {
                "species": [
                    {
                        "element": "Si",
                        "occu": 1
                    }
                ],
                "abc": [
                    0.75660851,
                    0.24339149,
                    0.5
                ],
                "xyz": [
                    2.342710455,
                    -2.5870155014224046,
                    2.406186065
                ],
                "label": "Si",
                "properties": {}
            },
            {
                "species": [
                    {
                        "element": "B",
                        "occu": 1
                    }
                ],
                "abc": [
                    0.85399137,
                    0.02154999,
                    0.10711669
                ],
                "xyz": [
                    3.589635334500956,
                    -4.1961561486901955,
                    0.5154492860373812
                ],
                "label": "B",
                "properties": {}
            },
            {
                "species": [
                    {
                        "element": "B",
                        "occu": 1
                    }
                ],
                "abc": [
                    0.97845001,
                    0.14600863,
                    0.89288331
                ],
                "xyz": [
                    1.0957855754990442,
                    -4.1961561486901955,
                    4.296922843962618
                ],
                "label": "B",
                "properties": {}
            },
            {
                "species": [
                    {
                        "element": "B",
                        "occu": 1
                    }
                ],
                "abc": [
                    0.83258907,
                    0.71867722,
                    0.69982273
                ],
                "xyz": [
                    3.9869050012133975,
                    -0.5742048885005873,
                    3.367799127843822
                ],
                "label": "B",
                "properties": {}
            },
            {
                "species": [
                    {
                        "element": "B",
                        "occu": 1
                    }
                ],
                "abc": [
                    0.28132278,
                    0.16741093,
                    0.30017727
                ],
                "xyz": [
                    0.6985159087866031,
                    -0.5742048885005873,
                    1.4445730021561782
                ],
                "label": "B",
                "properties": {}
            },
            {
                "species": [
                    {
                        "element": "O",
                        "occu": 1
                    }
                ],
                "abc": [
                    0.97006927,
                    0.29020554,
                    0.78721709
                ],
                "xyz": [
                    2.2215850513613384,
                    -3.427045362534658,
                    3.7883987278525226
                ],
                "label": "O",
                "properties": {}
            },
            {
                "species": [
                    {
                        "element": "O",
                        "occu": 1
                    }
                ],
                "abc": [
                    0.70979446,
                    0.02993073,
                    0.21278291
                ],
                "xyz": [
                    2.4638358586386615,
                    -3.4270453625346575,
                    1.0239734021474773
                ],
                "label": "O",
                "properties": {}
            },
            {
                "species": [
                    {
                        "element": "O",
                        "occu": 1
                    }
                ],
                "abc": [
                    0.50559323,
                    0.17920474,
                    0.47276865
                ],
                "xyz": [
                    0.9976881291492035,
                    -1.6452534701905475,
                    2.275152903742963
                ],
                "label": "O",
                "properties": {}
            },
            {
                "species": [
                    {
                        "element": "O",
                        "occu": 1
                    }
                ],
                "abc": [
                    0.82079526,
                    0.49440677,
                    0.52723135
                ],
                "xyz": [
                    3.687732780850797,
                    -1.6452534701905472,
                    2.5372192262570374
                ],
                "label": "O",
                "properties": {}
            },
            {
                "species": [
                    {
                        "element": "O",
                        "occu": 1
                    }
                ],
                "abc": [
                    0.11085878,
                    0.09480752,
                    0.32908701
                ],
                "xyz": [
                    -0.5709169055776445,
                    -0.08091091452376503,
                    1.583713848615312
                ],
                "label": "O",
                "properties": {}
            },
            {
                "species": [
                    {
                        "element": "O",
                        "occu": 1
                    }
                ],
                "abc": [
                    0.90519248,
                    0.88914122,
                    0.67091299
                ],
                "xyz": [
                    5.256337815577645,
                    -0.08091091452376453,
                    3.2286582813846887
                ],
                "label": "O",
                "properties": {}
            },
            {
                "species": [
                    {
                        "element": "O",
                        "occu": 1
                    }
                ],
                "abc": [
                    0.77209609,
                    0.76098701,
                    0.87988041
                ],
                "xyz": [
                    3.0642169721352497,
                    -0.05599845883237009,
                    4.234324332620154
                ],
                "label": "O",
                "properties": {}
            },
            {
                "species": [
                    {
                        "element": "O",
                        "occu": 1
                    }
                ],
                "abc": [
                    0.23901299,
                    0.22790391,
                    0.12011959
                ],
                "xyz": [
                    1.6212039378647507,
                    -0.05599845883237009,
                    0.5780477973798462
                ],
                "label": "O",
                "properties": {}
            },
            {
                "species": [
                    {
                        "element": "O",
                        "occu": 1
                    }
                ],
                "abc": [
                    0.8347519,
                    0.1652481,
                    0.0
                ],
                "xyz": [
                    4.66915363,
                    -3.3748232060994496,
                    -5.457e-05
                ],
                "label": "O",
                "properties": {}
            }
        ]
    },
    "spacegroup": {
        "source": "spglib",
        "symbol": "C2",
        "number": 5,
        "point_group": "2",
        "crystal_system": "monoclinic",
        "hall": "C 2y"
    },
    "dielectric": {
        "epsilon_ionic": [
            [
                3.43818797,
                1.709e-05,
                0.8775734
            ],
            [
                1.709e-05,
                3.45780587,
                3.33e-06
            ],
            [
                0.8775734,
                3.33e-06,
                4.03428118
            ]
        ],
        "epsilon_ionic_avg": 3.6434250066666665,
        "epsilon_ionic_eig": [
            4.66303922075125,
            2.8094299291613893,
            3.4578058700873617
        ],
        "epsilon_electronic": [
            [
                2.64063647,
                0.0,
                -0.02489143
            ],
            [
                0.0,
                2.57447927,
                0.0
            ],
            [
                -0.02489209,
                0.0,
                2.59899764
            ]
        ],
        "epsilon_electronic_avg": 2.60470446,
        "epsilon_electronic_eig": [
            2.652267752322722,
            2.587366357677278,
            2.57447927
        ]
    },
    "phonon": {
        "lowest_freq": -0.21982483531640415,
        "frequency": [
            -0.21982483531640415,
            -0.15492693707362673,
            -0.11777959884087671,
            1.512840246815541,
            1.8506090797842405,
            1.8951285595790384,
            2.204134591916537,
            2.330701607113933,
            2.9624831045378297,
            2.9671580777738624,
            3.419817401079408,
            4.832823714213565,
            5.722498350938597,
            7.50530787670856,
            8.473115732656165,
            9.083509830876611,
            9.873271689439628,
            9.922396457873337,
            11.781493384097947,
            12.12894394948323,
            12.84413749317639,
            13.404621971172139,
            13.908370264365912,
            14.32655887787614,
            15.489603529189232,
            17.599050005261606,
            17.894850529061983,
            19.1822832474661,
            20.031588266314017,
            20.822839377906735,
            21.653594838583828,
            22.39304312146475,
            23.137795776133203,
            23.17844811195379,
            25.24234049595099,
            25.84507344906545,
            26.171354338246555,
            26.568960164566892,
            29.461849686752178,
            30.833108297882248,
            30.953324938996804,
            31.960351770716056,
            32.65622893555539,
            33.69107238049846,
            38.51780424421043,
            39.75275435319146,
            40.689853219166345,
            41.4317721267673
        ]
    },
    "born_effective_charge": {
        "avg_abs_trace": 1.8204127083333335,
        "tensors": [
            [
                [
                    1.48762,
                    0.0,
                    -0.07741
                ],
                [
                    0.0,
                    1.24271,
                    0.0
                ],
                [
                    -0.05956,
                    1e-05,
                    1.4154
                ]
            ],
            [
                [
                    1.36703,
                    1e-05,
                    0.09612
                ],
                [
                    0.0,
                    1.43132,
                    0.0
                ],
                [
                    0.08476,
                    0.0,
                    1.27665
                ]
            ],
            [
                [
                    3.1418,
                    1e-05,
                    -0.42913
                ],
                [
                    0.0,
                    3.5773,
                    0.0
                ],
                [
                    0.19596,
                    1e-05,
                    3.21169
                ]
            ],
            [
                [
                    2.38838,
                    -0.31983,
                    -0.0384
                ],
                [
                    -0.27975,
                    2.23624,
                    0.10145
                ],
                [
                    -0.26161,
                    0.2706,
                    2.38894
                ]
            ],
            [
                [
                    2.38839,
                    0.31984,
                    -0.0384
                ],
                [
                    0.27975,
                    2.23624,
                    -0.10145
                ],
                [
                    -0.26158,
                    -0.27058,
                    2.38894
                ]
            ],
            [
                [
                    2.21265,
                    0.60916,
                    -0.17131
                ],
                [
                    0.37943,
                    1.85881,
                    1.06982
                ],
                [
                    -0.33494,
                    1.08081,
                    1.68416
                ]
            ],
            [
                [
                    2.21265,
                    -0.60916,
                    -0.17131
                ],
                [
                    -0.37943,
                    1.85881,
                    -1.06982
                ],
                [
                    -0.33493,
                    -1.08081,
                    1.68417
                ]
            ],
            [
                [
                    -1.63464,
                    -0.46304,
                    0.46284
                ],
                [
                    -0.45345,
                    -1.6297,
                    0.62186
                ],
                [
                    0.37906,
                    0.58483,
                    -1.79033
                ]
            ],
            [
                [
                    -1.63448,
                    0.46311,
                    0.46295
                ],
                [
                    0.45345,
                    -1.6297,
                    -0.62186
                ],
                [
                    0.37903,
                    -0.58477,
                    -1.79042
                ]
            ],
            [
                [
                    -1.63567,
                    0.72515,
                    -0.22004
                ],
                [
                    0.66612,
                    -1.95945,
                    0.65533
                ],
                [
                    -0.24813,
                    0.66848,
                    -1.43429
                ]
            ],
            [
                [
                    -1.63562,
                    -0.72519,
                    -0.22002
                ],
                [
                    -0.66612,
                    -1.95945,
                    -0.65533
                ],
                [
                    -0.2481,
                    -0.66849,
                    -1.43433
                ]
            ],
            [
                [
                    -1.86062,
                    0.55076,
                    -0.06717
                ],
                [
                    0.4627,
                    -1.43807,
                    0.43602
                ],
                [
                    -0.08496,
                    0.47869,
                    -1.38255
                ]
            ],
            [
                [
                    -1.86055,
                    -0.55078,
                    -0.06728
                ],
                [
                    -0.4627,
                    -1.43807,
                    -0.43602
                ],
                [
                    -0.08507,
                    -0.4787,
                    -1.38252
                ]
            ],
            [
                [
                    -1.52471,
                    -0.01913,
                    0.09169
                ],
                [
                    0.0935,
                    -1.38715,
                    -0.616
                ],
                [
                    0.23553,
                    -0.73377,
                    -1.74467
                ]
            ],
            [
                [
                    -1.52479,
                    0.01915,
                    0.09173
                ],
                [
                    -0.0935,
                    -1.38715,
                    0.616
                ],
                [
                    0.23562,
                    0.73377,
                    -1.74464
                ]
            ],
            [
                [
                    -1.88744,
                    -8e-05,
                    0.29513
                ],
                [
                    0.0,
                    -1.61268,
                    0.0
                ],
                [
                    0.4089,
                    -8e-05,
                    -1.34622
                ]
            ]
        ]
    },
    "band_gap": 4.7683,
    "is_direct": true,
    "formula": "Cs2SiB4O9"
}