{
    "mp_id": "mp-1095229",
    "nelements": 3,
    "nsites": 12,
    "elements": [
        "Nb",
        "O",
        "Y"
    ],
    "structure": {
        "@module": "pymatgen.core.structure",
        "@class": "Structure",
        "charge": null,
        "lattice": {
            "matrix": [
                [
                    -2.60067646,
                    2.60067646,
                    5.42243051
                ],
                [
                    2.60067646,
                    -2.60067646,
                    5.42243051
                ],
                [
                    2.60067646,
                    2.60067646,
                    -5.42243051
                ]
            ],
            "a": 6.552082778397654,
            "b": 6.552082778397654,
            "c": 6.552082778397654,
            "alpha": 133.2280002677894,
            "beta": 133.2280002677894,
            "gamma": 68.29631353965313,
            "volume": 146.69882650830638
        },
        "sites": [
            {
                "species": [
                    {
                        "element": "Y",
                        "occu": 1
                    }
                ],
                "abc": [
                    0.75,
                    0.25,
                    0.5
                ],
                "xyz": [
                    0.0,
                    2.60067646,
                    2.711215255
                ],
                "label": "Y",
                "properties": {}
            },
            {
                "species": [
                    {
                        "element": "Y",
                        "occu": 1
                    }
                ],
                "abc": [
                    0.0,
                    0.0,
                    0.0
                ],
                "xyz": [
                    0.0,
                    0.0,
                    0.0
                ],
                "label": "Y",
                "properties": {}
            },
            {
                "species": [
                    {
                        "element": "Nb",
                        "occu": 1
                    }
                ],
                "abc": [
                    0.25,
                    0.75,
                    0.5
                ],
                "xyz": [
                    2.60067646,
                    0.0,
                    2.711215255
                ],
                "label": "Nb",
                "properties": {}
            },
            {
                "species": [
                    {
                        "element": "Nb",
                        "occu": 1
                    }
                ],
                "abc": [
                    0.5,
                    0.5,
                    0.0
                ],
                "xyz": [
                    0.0,
                    0.0,
                    5.42243051
                ],
                "label": "Nb",
                "properties": {}
            },
            {
                "species": [
                    {
                        "element": "O",
                        "occu": 1
                    }
                ],
                "abc": [
                    0.34582656,
                    0.40768439,
                    0.44142851
                ],
                "xyz": [
                    1.3088849370775564,
                    0.9871405323821928,
                    1.6922453442912446
                ],
                "label": "O",
                "properties": {}
            },
            {
                "species": [
                    {
                        "element": "O",
                        "occu": 1
                    }
                ],
                "abc": [
                    0.96625488,
                    0.90439805,
                    0.55857149
                ],
                "xyz": [
                    1.291794123598903,
                    1.6135333269413472,
                    7.114670431860736
                ],
                "label": "O",
                "properties": {}
            },
            {
                "species": [
                    {
                        "element": "O",
                        "occu": 1
                    }
                ],
                "abc": [
                    0.65439805,
                    0.59582656,
                    0.43814317
                ],
                "xyz": [
                    0.9871431330586529,
                    1.2917941235989037,
                    4.403455176860734
                ],
                "label": "O",
                "properties": {}
            },
            {
                "species": [
                    {
                        "element": "O",
                        "occu": 1
                    }
                ],
                "abc": [
                    0.15768439,
                    0.21625488,
                    0.56185683
                ],
                "xyz": [
                    1.613530726264887,
                    1.3088849370775562,
                    -1.0189699107087553
                ],
                "label": "O",
                "properties": {}
            },
            {
                "species": [
                    {
                        "element": "O",
                        "occu": 1
                    }
                ],
                "abc": [
                    0.40417344,
                    0.84231561,
                    0.05857149
                ],
                "xyz": [
                    1.2917915229224433,
                    -0.9871405323821925,
                    6.441400420708755
                ],
                "label": "O",
                "properties": {}
            },
            {
                "species": [
                    {
                        "element": "O",
                        "occu": 1
                    }
                ],
                "abc": [
                    0.78374512,
                    0.34560195,
                    0.94142851
                ],
                "xyz": [
                    1.3088823364010964,
                    3.587819593058653,
                    1.0189753331392648
                ],
                "label": "O",
                "properties": {}
            },
            {
                "species": [
                    {
                        "element": "O",
                        "occu": 1
                    }
                ],
                "abc": [
                    0.09560195,
                    0.65417344,
                    0.06185683
                ],
                "xyz": [
                    1.6135333269413472,
                    -1.2917941235989034,
                    3.730190588139265
                ],
                "label": "O",
                "properties": {}
            },
            {
                "species": [
                    {
                        "element": "O",
                        "occu": 1
                    }
                ],
                "abc": [
                    0.59231561,
                    0.03374512,
                    0.93814317
                ],
                "xyz": [
                    0.9871457337351128,
                    3.892467982922444,
                    -1.6922453442912446
                ],
                "label": "O",
                "properties": {}
            }
        ]
    },
    "spacegroup": {
        "source": "spglib",
        "symbol": "I4_1/a",
        "number": 88,
        "point_group": "4/m",
        "crystal_system": "tetragonal",
        "hall": "I 4bw -1bw"
    },
    "dielectric": {
        "epsilon_ionic": [
            [
                30.62459182,
                -0.00108614,
                -1e-08
            ],
            [
                -0.00108614,
                30.62424102,
                -0.0
            ],
            [
                -1e-08,
                -0.0,
                16.47378705
            ]
        ],
        "epsilon_ionic_avg": 25.90753996333333,
        "epsilon_ionic_eig": [
            30.625516631461302,
            30.623316208538686,
            16.47378705
        ],
        "epsilon_electronic": [
            [
                5.11610446,
                -3.9e-07,
                -0.0
            ],
            [
                3.9e-07,
                5.11610446,
                0.0
            ],
            [
                0.0,
                0.0,
                4.86489159
            ]
        ],
        "epsilon_electronic_avg": 5.032366836666667,
        "epsilon_electronic_eig": [
            5.11610446,
            5.11610446,
            4.86489159
        ]
    },
    "phonon": {
        "lowest_freq": -0.07432486926301363,
        "frequency": [
            -0.07432486926301363,
            -0.07432486926301363,
            -0.06818528227138508,
            2.6521617303527325,
            2.8093919432351417,
            2.8093919432351417,
            3.323764183213024,
            4.420440071729735,
            4.420440071729735,
            6.0889149702528815,
            6.0889149702528815,
            6.283187853745666,
            6.379016636092913,
            6.5822703958271935,
            6.5822703958271935,
            6.880418541440341,
            7.413535425203401,
            9.022459097010412,
            10.202534508603915,
            10.57195228603043,
            10.57195228603043,
            10.8540967068503,
            10.8540967068503,
            12.849830071571828,
            12.849830071571828,
            13.30281277663818,
            13.447996707017284,
            16.032098462827143,
            18.40949996954212,
            18.465552322853487,
            18.465552322853487,
            20.244913077594596,
            20.244913077594596,
            20.77492233021009,
            22.34651973074359,
            22.52509675116685
        ]
    },
    "born_effective_charge": {
        "avg_abs_trace": 3.294798333333333,
        "tensors": [
            [
                [
                    4.49543,
                    0.32214,
                    0.00017
                ],
                [
                    -0.32238,
                    4.49553,
                    -0.00013
                ],
                [
                    -0.0,
                    -0.0,
                    3.87938
                ]
            ],
            [
                [
                    4.49543,
                    0.32214,
                    -0.00017
                ],
                [
                    -0.32238,
                    4.49553,
                    0.00013
                ],
                [
                    -0.0,
                    -0.0,
                    3.87938
                ]
            ],
            [
                [
                    5.62379,
                    -0.35746,
                    0.0001
                ],
                [
                    0.35745,
                    5.6238,
                    -0.0001
                ],
                [
                    -0.0,
                    -0.0,
                    5.53525
                ]
            ],
            [
                [
                    5.62379,
                    -0.35746,
                    -0.0001
                ],
                [
                    0.35745,
                    5.6238,
                    0.0001
                ],
                [
                    -0.0,
                    -0.0,
                    5.53525
                ]
            ],
            [
                [
                    -2.67216,
                    0.83816,
                    -0.62876
                ],
                [
                    0.82071,
                    -2.38749,
                    0.55963
                ],
                [
                    -0.74966,
                    0.42927,
                    -2.35366
                ]
            ],
            [
                [
                    -2.67221,
                    0.83827,
                    0.62871
                ],
                [
                    0.82071,
                    -2.38738,
                    -0.5597
                ],
                [
                    0.74966,
                    -0.42927,
                    -2.35366
                ]
            ],
            [
                [
                    -2.38755,
                    -0.82059,
                    0.55949
                ],
                [
                    -0.83829,
                    -2.67223,
                    0.62861
                ],
                [
                    0.42927,
                    0.74966,
                    -2.35366
                ]
            ],
            [
                [
                    -2.3873,
                    -0.82053,
                    -0.55967
                ],
                [
                    -0.83819,
                    -2.67223,
                    -0.62865
                ],
                [
                    -0.42927,
                    -0.74966,
                    -2.35366
                ]
            ],
            [
                [
                    -2.67221,
                    0.83827,
                    -0.62871
                ],
                [
                    0.82071,
                    -2.38738,
                    0.5597
                ],
                [
                    -0.74964,
                    0.42922,
                    -2.35366
                ]
            ],
            [
                [
                    -2.67216,
                    0.83816,
                    0.62876
                ],
                [
                    0.82071,
                    -2.38749,
                    -0.55963
                ],
                [
                    0.74964,
                    -0.42922,
                    -2.35366
                ]
            ],
            [
                [
                    -2.3873,
                    -0.82053,
                    0.55967
                ],
                [
                    -0.83819,
                    -2.67223,
                    0.62865
                ],
                [
                    0.42922,
                    0.74964,
                    -2.35366
                ]
            ],
            [
                [
                    -2.38755,
                    -0.82059,
                    -0.55949
                ],
                [
                    -0.83829,
                    -2.67223,
                    -0.62861
                ],
                [
                    -0.42922,
                    -0.74964,
                    -2.35366
                ]
            ]
        ]
    },
    "band_gap": 3.7412000000000005,
    "is_direct": false,
    "formula": "YNbO4"
}