{
    "mp_id": "mp-1201472",
    "nelements": 3,
    "nsites": 32,
    "elements": [
        "Cs",
        "O",
        "Sb"
    ],
    "structure": {
        "@module": "pymatgen.core.structure",
        "@class": "Structure",
        "charge": null,
        "lattice": {
            "matrix": [
                [
                    12.78307251,
                    0.0,
                    0.0
                ],
                [
                    0.0,
                    9.15687166,
                    0.0
                ],
                [
                    0.0,
                    0.0,
                    6.81254397
                ]
            ],
            "a": 12.78307251,
            "b": 9.15687166,
            "c": 6.81254397,
            "alpha": 90.0,
            "beta": 90.0,
            "gamma": 90.0,
            "volume": 797.4283986312363
        },
        "sites": [
            {
                "species": [
                    {
                        "element": "Cs",
                        "occu": 1
                    }
                ],
                "abc": [
                    0.14803631,
                    0.00692822,
                    0.7059047
                ],
                "xyz": [
                    1.892358884842838,
                    0.0634408213722452,
                    4.809006807379659
                ],
                "label": "Cs",
                "properties": {}
            },
            {
                "species": [
                    {
                        "element": "Cs",
                        "occu": 1
                    }
                ],
                "abc": [
                    0.64803631,
                    0.49307178,
                    0.7940953
                ],
                "xyz": [
                    8.283895139842837,
                    4.514995008627755,
                    5.409809147620341
                ],
                "label": "Cs",
                "properties": {}
            },
            {
                "species": [
                    {
                        "element": "Cs",
                        "occu": 1
                    }
                ],
                "abc": [
                    0.85196369,
                    0.50692822,
                    0.2940953
                ],
                "xyz": [
                    10.890713625157163,
                    4.641876651372246,
                    2.003537162620341
                ],
                "label": "Cs",
                "properties": {}
            },
            {
                "species": [
                    {
                        "element": "Cs",
                        "occu": 1
                    }
                ],
                "abc": [
                    0.35196369,
                    0.99307178,
                    0.2059047
                ],
                "xyz": [
                    4.499177370157162,
                    9.093430838627755,
                    1.402734822379659
                ],
                "label": "Cs",
                "properties": {}
            },
            {
                "species": [
                    {
                        "element": "Cs",
                        "occu": 1
                    }
                ],
                "abc": [
                    0.85196369,
                    0.99307178,
                    0.2940953
                ],
                "xyz": [
                    10.890713625157163,
                    9.093430838627755,
                    2.003537162620341
                ],
                "label": "Cs",
                "properties": {}
            },
            {
                "species": [
                    {
                        "element": "Cs",
                        "occu": 1
                    }
                ],
                "abc": [
                    0.35196369,
                    0.50692822,
                    0.2059047
                ],
                "xyz": [
                    4.499177370157162,
                    4.641876651372246,
                    1.402734822379659
                ],
                "label": "Cs",
                "properties": {}
            },
            {
                "species": [
                    {
                        "element": "Cs",
                        "occu": 1
                    }
                ],
                "abc": [
                    0.14803631,
                    0.49307178,
                    0.7059047
                ],
                "xyz": [
                    1.892358884842838,
                    4.514995008627755,
                    4.809006807379659
                ],
                "label": "Cs",
                "properties": {}
            },
            {
                "species": [
                    {
                        "element": "Cs",
                        "occu": 1
                    }
                ],
                "abc": [
                    0.64803631,
                    0.00692822,
                    0.7940953
                ],
                "xyz": [
                    8.283895139842837,
                    0.0634408213722452,
                    5.409809147620341
                ],
                "label": "Cs",
                "properties": {}
            },
            {
                "species": [
                    {
                        "element": "Cs",
                        "occu": 1
                    }
                ],
                "abc": [
                    0.07463316,
                    0.25,
                    0.14948843
                ],
                "xyz": [
                    0.9540410959304316,
                    2.289217915,
                    1.018396502381267
                ],
                "label": "Cs",
                "properties": {}
            },
            {
                "species": [
                    {
                        "element": "Cs",
                        "occu": 1
                    }
                ],
                "abc": [
                    0.57463316,
                    0.25,
                    0.35051157
                ],
                "xyz": [
                    7.345577350930432,
                    2.289217915,
                    2.3878754826187327
                ],
                "label": "Cs",
                "properties": {}
            },
            {
                "species": [
                    {
                        "element": "Cs",
                        "occu": 1
                    }
                ],
                "abc": [
                    0.92536684,
                    0.75,
                    0.85051157
                ],
                "xyz": [
                    11.829031414069568,
                    6.867653745,
                    5.794147467618733
                ],
                "label": "Cs",
                "properties": {}
            },
            {
                "species": [
                    {
                        "element": "Cs",
                        "occu": 1
                    }
                ],
                "abc": [
                    0.42536684,
                    0.75,
                    0.64948843
                ],
                "xyz": [
                    5.437495159069568,
                    6.867653745,
                    4.424668487381267
                ],
                "label": "Cs",
                "properties": {}
            },
            {
                "species": [
                    {
                        "element": "Sb",
                        "occu": 1
                    }
                ],
                "abc": [
                    0.11098077,
                    0.75,
                    0.27753218
                ],
                "xyz": [
                    1.418675230125633,
                    6.867653745,
                    1.8907001793399547
                ],
                "label": "Sb",
                "properties": {}
            },
            {
                "species": [
                    {
                        "element": "Sb",
                        "occu": 1
                    }
                ],
                "abc": [
                    0.61098077,
                    0.75,
                    0.22246782
                ],
                "xyz": [
                    7.810211485125632,
                    6.867653745,
                    1.5155718056600456
                ],
                "label": "Sb",
                "properties": {}
            },
            {
                "species": [
                    {
                        "element": "Sb",
                        "occu": 1
                    }
                ],
                "abc": [
                    0.88901923,
                    0.25,
                    0.72246782
                ],
                "xyz": [
                    11.364397279874368,
                    2.289217915,
                    4.921843790660045
                ],
                "label": "Sb",
                "properties": {}
            },
            {
                "species": [
                    {
                        "element": "Sb",
                        "occu": 1
                    }
                ],
                "abc": [
                    0.38901923,
                    0.25,
                    0.77753218
                ],
                "xyz": [
                    4.972861024874367,
                    2.289217915,
                    5.296972164339955
                ],
                "label": "Sb",
                "properties": {}
            },
            {
                "species": [
                    {
                        "element": "O",
                        "occu": 1
                    }
                ],
                "abc": [
                    0.23274083,
                    0.75,
                    0.44002009
                ],
                "xyz": [
                    2.9751429059275836,
                    6.867653745,
                    2.997656210808357
                ],
                "label": "O",
                "properties": {}
            },
            {
                "species": [
                    {
                        "element": "O",
                        "occu": 1
                    }
                ],
                "abc": [
                    0.73274083,
                    0.75,
                    0.05997991
                ],
                "xyz": [
                    9.366679160927584,
                    6.867653745,
                    0.4086157741916427
                ],
                "label": "O",
                "properties": {}
            },
            {
                "species": [
                    {
                        "element": "O",
                        "occu": 1
                    }
                ],
                "abc": [
                    0.76725917,
                    0.25,
                    0.55997991
                ],
                "xyz": [
                    9.807929604072417,
                    2.289217915,
                    3.814887759191643
                ],
                "label": "O",
                "properties": {}
            },
            {
                "species": [
                    {
                        "element": "O",
                        "occu": 1
                    }
                ],
                "abc": [
                    0.26725917,
                    0.25,
                    0.94002009
                ],
                "xyz": [
                    3.4163933490724165,
                    2.289217915,
                    6.403928195808358
                ],
                "label": "O",
                "properties": {}
            },
            {
                "species": [
                    {
                        "element": "O",
                        "occu": 1
                    }
                ],
                "abc": [
                    0.99070242,
                    0.75,
                    0.44376433
                ],
                "xyz": [
                    12.664220870692475,
                    6.867653745,
                    3.02316401044259
                ],
                "label": "O",
                "properties": {}
            },
            {
                "species": [
                    {
                        "element": "O",
                        "occu": 1
                    }
                ],
                "abc": [
                    0.49070242,
                    0.75,
                    0.05623567
                ],
                "xyz": [
                    6.272684615692474,
                    6.867653745,
                    0.3831079745574099
                ],
                "label": "O",
                "properties": {}
            },
            {
                "species": [
                    {
                        "element": "O",
                        "occu": 1
                    }
                ],
                "abc": [
                    0.00929758,
                    0.25,
                    0.55623567
                ],
                "xyz": [
                    0.1188516393075258,
                    2.289217915,
                    3.78937995955741
                ],
                "label": "O",
                "properties": {}
            },
            {
                "species": [
                    {
                        "element": "O",
                        "occu": 1
                    }
                ],
                "abc": [
                    0.50929758,
                    0.25,
                    0.94376433
                ],
                "xyz": [
                    6.510387894307526,
                    2.289217915,
                    6.42943599544259
                ],
                "label": "O",
                "properties": {}
            },
            {
                "species": [
                    {
                        "element": "O",
                        "occu": 1
                    }
                ],
                "abc": [
                    0.11131143,
                    0.57867974,
                    0.11930642
                ],
                "xyz": [
                    1.4229020808817894,
                    5.298896111422168,
                    0.8127802321532874
                ],
                "label": "O",
                "properties": {}
            },
            {
                "species": [
                    {
                        "element": "O",
                        "occu": 1
                    }
                ],
                "abc": [
                    0.61131143,
                    0.92132026,
                    0.38069358
                ],
                "xyz": [
                    7.814438335881789,
                    8.436411378577832,
                    2.5934917528467123
                ],
                "label": "O",
                "properties": {}
            },
            {
                "species": [
                    {
                        "element": "O",
                        "occu": 1
                    }
                ],
                "abc": [
                    0.88868857,
                    0.07867974,
                    0.88069358
                ],
                "xyz": [
                    11.360170429118211,
                    0.7204602814221684,
                    5.999763737846712
                ],
                "label": "O",
                "properties": {}
            },
            {
                "species": [
                    {
                        "element": "O",
                        "occu": 1
                    }
                ],
                "abc": [
                    0.38868857,
                    0.42132026,
                    0.61930642
                ],
                "xyz": [
                    4.968634174118211,
                    3.8579755485778318,
                    4.219052217153288
                ],
                "label": "O",
                "properties": {}
            },
            {
                "species": [
                    {
                        "element": "O",
                        "occu": 1
                    }
                ],
                "abc": [
                    0.88868857,
                    0.42132026,
                    0.88069358
                ],
                "xyz": [
                    11.360170429118211,
                    3.8579755485778318,
                    5.999763737846712
                ],
                "label": "O",
                "properties": {}
            },
            {
                "species": [
                    {
                        "element": "O",
                        "occu": 1
                    }
                ],
                "abc": [
                    0.38868857,
                    0.07867974,
                    0.61930642
                ],
                "xyz": [
                    4.968634174118211,
                    0.7204602814221684,
                    4.219052217153288
                ],
                "label": "O",
                "properties": {}
            },
            {
                "species": [
                    {
                        "element": "O",
                        "occu": 1
                    }
                ],
                "abc": [
                    0.11131143,
                    0.92132026,
                    0.11930642
                ],
                "xyz": [
                    1.4229020808817894,
                    8.436411378577832,
                    0.8127802321532874
                ],
                "label": "O",
                "properties": {}
            },
            {
                "species": [
                    {
                        "element": "O",
                        "occu": 1
                    }
                ],
                "abc": [
                    0.61131143,
                    0.57867974,
                    0.38069358
                ],
                "xyz": [
                    7.814438335881789,
                    5.298896111422168,
                    2.5934917528467123
                ],
                "label": "O",
                "properties": {}
            }
        ]
    },
    "spacegroup": {
        "source": "spglib",
        "symbol": "Pnma",
        "number": 62,
        "point_group": "mmm",
        "crystal_system": "orthorhombic",
        "hall": "-P 2ac 2n"
    },
    "dielectric": {
        "epsilon_ionic": [
            [
                6.89613866,
                1.45e-06,
                -2.9e-07
            ],
            [
                1.45e-06,
                6.13500752,
                -2.56e-06
            ],
            [
                -2.9e-07,
                -2.56e-06,
                4.77951149
            ]
        ],
        "epsilon_ionic_avg": 5.936885889999997,
        "epsilon_ionic_eig": [
            6.8961386600028005,
            6.135007520002068,
            4.779511489995125
        ],
        "epsilon_electronic": [
            [
                3.05970959,
                0.0,
                0.0
            ],
            [
                0.0,
                3.06644056,
                -0.0
            ],
            [
                0.0,
                -0.0,
                3.08347037
            ]
        ],
        "epsilon_electronic_avg": 3.069873506666667,
        "epsilon_electronic_eig": [
            3.05970959,
            3.06644056,
            3.08347037
        ]
    },
    "phonon": {
        "lowest_freq": -0.14169098132614164,
        "frequency": [
            -0.14169098132614164,
            -0.11110550391348308,
            -0.06593331134695772,
            0.7950294236472821,
            0.8489074355037033,
            0.9195298505368171,
            1.0741873525415109,
            1.0850048378159884,
            1.3093781903530015,
            1.328172716618055,
            1.333916929753672,
            1.3649050411377452,
            1.3886615889638052,
            1.432582723126238,
            1.4427164134368424,
            1.4849963540504578,
            1.5375376241133436,
            1.5490615818215085,
            1.6707758492421731,
            1.7558058104150758,
            1.8471304750187425,
            1.8584611271696918,
            1.8730457591489758,
            1.8961073563296948,
            1.9055837481832956,
            1.9217949538972698,
            1.9878356520462386,
            2.035150123490168,
            2.0369787811821527,
            2.0440112519404354,
            2.072168727913726,
            2.0838169805564655,
            2.1690150195089957,
            2.2094746759528716,
            2.2097267466897486,
            2.2328409091411627,
            2.334569395641638,
            2.3401408980982388,
            2.3441357955064865,
            2.363729103357065,
            2.384672490111365,
            2.575705523605565,
            2.666114552559664,
            2.73921911713174,
            2.785466350989144,
            2.8706575355278416,
            2.8783878774030742,
            2.887034629073295,
            2.9551878629720827,
            2.9617825071129387,
            2.9974624425098257,
            2.998443001408983,
            3.1761819482911244,
            3.199188810496237,
            3.2913772213470835,
            3.3079144609992515,
            3.3763996768765145,
            3.4536783128195583,
            3.5377626551311345,
            3.6180307502545346,
            6.425605238507682,
            6.491308519266871,
            6.61873945592855,
            6.638676880794813,
            6.838085211424672,
            6.8730692585076145,
            7.021046291532112,
            7.359285133583737,
            7.470950030129332,
            7.617816358217992,
            7.72469492221592,
            7.749756071712658,
            7.786600700592345,
            7.842714925921748,
            8.103472818072541,
            8.166525609565491,
            8.210772242082685,
            8.478077873823572,
            8.609187489961728,
            8.890189506077153,
            20.422893326547616,
            20.440811806023827,
            20.558880428670044,
            20.656799210587995,
            20.659307209930095,
            20.833605811459382,
            20.905192752472043,
            20.978667785177727,
            21.069788613775675,
            21.074869243445672,
            21.096979791945152,
            21.174561833323967,
            21.17696465879806,
            21.289104115879447,
            21.302325610119837,
            21.350832264343392
        ]
    },
    "born_effective_charge": {
        "avg_abs_trace": 1.7500277083333333,
        "tensors": [
            [
                [
                    1.33329,
                    -0.02087,
                    0.02475
                ],
                [
                    0.01934,
                    1.26323,
                    0.044
                ],
                [
                    -0.00798,
                    0.11932,
                    1.30786
                ]
            ],
            [
                [
                    1.33329,
                    0.02087,
                    -0.02475
                ],
                [
                    -0.01933,
                    1.26327,
                    0.04398
                ],
                [
                    0.00785,
                    0.11967,
                    1.30816
                ]
            ],
            [
                [
                    1.33338,
                    0.02081,
                    0.02473
                ],
                [
                    -0.01934,
                    1.26323,
                    -0.044
                ],
                [
                    -0.00785,
                    -0.11967,
                    1.30816
                ]
            ],
            [
                [
                    1.33338,
                    -0.02081,
                    -0.02473
                ],
                [
                    0.01933,
                    1.26327,
                    -0.04398
                ],
                [
                    0.00798,
                    -0.11932,
                    1.30786
                ]
            ],
            [
                [
                    1.33338,
                    -0.02081,
                    0.02473
                ],
                [
                    0.01933,
                    1.26327,
                    0.04398
                ],
                [
                    -0.00785,
                    0.11967,
                    1.30816
                ]
            ],
            [
                [
                    1.33338,
                    0.02081,
                    -0.02473
                ],
                [
                    -0.01934,
                    1.26323,
                    0.044
                ],
                [
                    0.00798,
                    0.11932,
                    1.30786
                ]
            ],
            [
                [
                    1.33329,
                    0.02087,
                    0.02475
                ],
                [
                    -0.01933,
                    1.26327,
                    -0.04398
                ],
                [
                    -0.00798,
                    -0.11932,
                    1.30786
                ]
            ],
            [
                [
                    1.33329,
                    -0.02087,
                    -0.02475
                ],
                [
                    0.01934,
                    1.26323,
                    -0.044
                ],
                [
                    0.00785,
                    -0.11967,
                    1.30816
                ]
            ],
            [
                [
                    1.3126,
                    0.0,
                    -0.30069
                ],
                [
                    0.00013,
                    1.51851,
                    -6e-05
                ],
                [
                    -0.19254,
                    0.0,
                    1.3781
                ]
            ],
            [
                [
                    1.3126,
                    0.0,
                    0.30069
                ],
                [
                    0.00013,
                    1.51851,
                    6e-05
                ],
                [
                    0.19235,
                    0.0,
                    1.37821
                ]
            ],
            [
                [
                    1.31269,
                    0.0,
                    -0.30062
                ],
                [
                    -0.00013,
                    1.51851,
                    6e-05
                ],
                [
                    -0.19235,
                    0.0,
                    1.37821
                ]
            ],
            [
                [
                    1.31269,
                    0.0,
                    0.30062
                ],
                [
                    -0.00013,
                    1.51851,
                    -6e-05
                ],
                [
                    0.19254,
                    0.0,
                    1.3781
                ]
            ],
            [
                [
                    3.04,
                    0.0,
                    0.12376
                ],
                [
                    7e-05,
                    3.00714,
                    5e-05
                ],
                [
                    0.11104,
                    0.0,
                    2.93495
                ]
            ],
            [
                [
                    3.04,
                    0.0,
                    -0.12376
                ],
                [
                    7e-05,
                    3.00714,
                    -5e-05
                ],
                [
                    -0.11084,
                    0.0,
                    2.93454
                ]
            ],
            [
                [
                    3.0399,
                    0.0,
                    0.12366
                ],
                [
                    -7e-05,
                    3.00714,
                    -5e-05
                ],
                [
                    0.11084,
                    0.0,
                    2.93454
                ]
            ],
            [
                [
                    3.0399,
                    0.0,
                    -0.12366
                ],
                [
                    -7e-05,
                    3.00714,
                    5e-05
                ],
                [
                    -0.11104,
                    0.0,
                    2.93495
                ]
            ],
            [
                [
                    -2.14071,
                    0.0,
                    -0.38817
                ],
                [
                    -0.00112,
                    -1.55948,
                    -0.00063
                ],
                [
                    -0.42019,
                    0.0,
                    -1.71222
                ]
            ],
            [
                [
                    -2.14071,
                    0.0,
                    0.38817
                ],
                [
                    -0.00112,
                    -1.55948,
                    0.00063
                ],
                [
                    0.42114,
                    0.0,
                    -1.71246
                ]
            ],
            [
                [
                    -2.14039,
                    0.0,
                    -0.38772
                ],
                [
                    0.00112,
                    -1.55948,
                    0.00063
                ],
                [
                    -0.42114,
                    0.0,
                    -1.71246
                ]
            ],
            [
                [
                    -2.14039,
                    0.0,
                    0.38772
                ],
                [
                    0.00112,
                    -1.55948,
                    -0.00063
                ],
                [
                    0.42019,
                    0.0,
                    -1.71222
                ]
            ],
            [
                [
                    -1.99795,
                    0.0,
                    0.40114
                ],
                [
                    0.00193,
                    -1.46341,
                    -0.00123
                ],
                [
                    0.32394,
                    0.0,
                    -1.82734
                ]
            ],
            [
                [
                    -1.99795,
                    0.0,
                    -0.40114
                ],
                [
                    0.00193,
                    -1.46341,
                    0.00123
                ],
                [
                    -0.32504,
                    0.0,
                    -1.8275
                ]
            ],
            [
                [
                    -1.99839,
                    0.0,
                    0.40186
                ],
                [
                    -0.00193,
                    -1.46341,
                    0.00123
                ],
                [
                    0.32504,
                    0.0,
                    -1.8275
                ]
            ],
            [
                [
                    -1.99839,
                    0.0,
                    -0.40186
                ],
                [
                    -0.00193,
                    -1.46341,
                    -0.00123
                ],
                [
                    -0.32394,
                    0.0,
                    -1.82734
                ]
            ],
            [
                [
                    -1.44027,
                    0.04919,
                    -0.07499
                ],
                [
                    0.07724,
                    -2.01591,
                    -0.49805
                ],
                [
                    -0.06098,
                    -0.49155,
                    -1.694
                ]
            ],
            [
                [
                    -1.44027,
                    -0.04919,
                    0.07499
                ],
                [
                    -0.07742,
                    -2.01335,
                    -0.49483
                ],
                [
                    0.06133,
                    -0.49174,
                    -1.69516
                ]
            ],
            [
                [
                    -1.44027,
                    -0.04986,
                    -0.07473
                ],
                [
                    -0.07724,
                    -2.01591,
                    0.49805
                ],
                [
                    -0.06133,
                    0.49174,
                    -1.69516
                ]
            ],
            [
                [
                    -1.44027,
                    0.04986,
                    0.07473
                ],
                [
                    0.07742,
                    -2.01335,
                    0.49483
                ],
                [
                    0.06098,
                    0.49155,
                    -1.694
                ]
            ],
            [
                [
                    -1.44027,
                    0.04986,
                    -0.07473
                ],
                [
                    0.07742,
                    -2.01335,
                    -0.49483
                ],
                [
                    -0.06133,
                    -0.49174,
                    -1.69516
                ]
            ],
            [
                [
                    -1.44027,
                    -0.04986,
                    0.07473
                ],
                [
                    -0.07724,
                    -2.01591,
                    -0.49805
                ],
                [
                    0.06098,
                    -0.49155,
                    -1.694
                ]
            ],
            [
                [
                    -1.44027,
                    -0.04919,
                    -0.07499
                ],
                [
                    -0.07742,
                    -2.01335,
                    0.49483
                ],
                [
                    -0.06098,
                    0.49155,
                    -1.694
                ]
            ],
            [
                [
                    -1.44027,
                    0.04919,
                    0.07499
                ],
                [
                    0.07724,
                    -2.01591,
                    0.49805
                ],
                [
                    0.06133,
                    0.49174,
                    -1.69516
                ]
            ]
        ]
    },
    "band_gap": 2.8523,
    "is_direct": true,
    "formula": "Cs3SbO4"
}