{
    "mp_id": "mp-1208033",
    "nelements": 3,
    "nsites": 16,
    "elements": [
        "O",
        "Pt",
        "Tl"
    ],
    "structure": {
        "@module": "pymatgen.core.structure",
        "@class": "Structure",
        "charge": null,
        "lattice": {
            "matrix": [
                [
                    0.0,
                    4.80103677,
                    4.80103677
                ],
                [
                    4.80103677,
                    0.0,
                    4.80103677
                ],
                [
                    4.80103677,
                    4.80103677,
                    0.0
                ]
            ],
            "a": 6.789691313585917,
            "b": 6.789691313585917,
            "c": 6.789691313585917,
            "alpha": 59.99999999999999,
            "beta": 59.99999999999999,
            "gamma": 59.99999999999999,
            "volume": 221.3273540439193
        },
        "sites": [
            {
                "species": [
                    {
                        "element": "Tl",
                        "occu": 1
                    }
                ],
                "abc": [
                    0.5,
                    0.5,
                    0.5
                ],
                "xyz": [
                    4.80103677,
                    4.80103677,
                    4.80103677
                ],
                "label": "Tl",
                "properties": {}
            },
            {
                "species": [
                    {
                        "element": "Tl",
                        "occu": 1
                    }
                ],
                "abc": [
                    0.0,
                    0.0,
                    0.0
                ],
                "xyz": [
                    0.0,
                    0.0,
                    0.0
                ],
                "label": "Tl",
                "properties": {}
            },
            {
                "species": [
                    {
                        "element": "Pt",
                        "occu": 1
                    }
                ],
                "abc": [
                    0.5,
                    0.0,
                    0.0
                ],
                "xyz": [
                    0.0,
                    2.400518385,
                    2.400518385
                ],
                "label": "Pt",
                "properties": {}
            },
            {
                "species": [
                    {
                        "element": "Pt",
                        "occu": 1
                    }
                ],
                "abc": [
                    0.0,
                    0.5,
                    0.5
                ],
                "xyz": [
                    4.80103677,
                    2.400518385,
                    2.400518385
                ],
                "label": "Pt",
                "properties": {}
            },
            {
                "species": [
                    {
                        "element": "Pt",
                        "occu": 1
                    }
                ],
                "abc": [
                    0.0,
                    0.5,
                    0.0
                ],
                "xyz": [
                    2.400518385,
                    0.0,
                    2.400518385
                ],
                "label": "Pt",
                "properties": {}
            },
            {
                "species": [
                    {
                        "element": "Pt",
                        "occu": 1
                    }
                ],
                "abc": [
                    0.5,
                    0.0,
                    0.5
                ],
                "xyz": [
                    2.400518385,
                    4.80103677,
                    2.400518385
                ],
                "label": "Pt",
                "properties": {}
            },
            {
                "species": [
                    {
                        "element": "Pt",
                        "occu": 1
                    }
                ],
                "abc": [
                    0.0,
                    0.0,
                    0.5
                ],
                "xyz": [
                    2.400518385,
                    2.400518385,
                    0.0
                ],
                "label": "Pt",
                "properties": {}
            },
            {
                "species": [
                    {
                        "element": "Pt",
                        "occu": 1
                    }
                ],
                "abc": [
                    0.5,
                    0.5,
                    0.0
                ],
                "xyz": [
                    2.400518385,
                    2.400518385,
                    4.80103677
                ],
                "label": "Pt",
                "properties": {}
            },
            {
                "species": [
                    {
                        "element": "O",
                        "occu": 1
                    }
                ],
                "abc": [
                    0.14257968,
                    0.14257968,
                    0.14257968
                ],
                "xyz": [
                    1.369060572669667,
                    1.369060572669667,
                    1.369060572669667
                ],
                "label": "O",
                "properties": {}
            },
            {
                "species": [
                    {
                        "element": "O",
                        "occu": 1
                    }
                ],
                "abc": [
                    0.85742032,
                    0.85742032,
                    0.85742032
                ],
                "xyz": [
                    8.233012967330332,
                    8.233012967330332,
                    8.233012967330332
                ],
                "label": "O",
                "properties": {}
            },
            {
                "species": [
                    {
                        "element": "O",
                        "occu": 1
                    }
                ],
                "abc": [
                    0.14257968,
                    0.14257968,
                    0.57226195
                ],
                "xyz": [
                    3.431980950356735,
                    3.431980950356735,
                    1.369060572669667
                ],
                "label": "O",
                "properties": {}
            },
            {
                "species": [
                    {
                        "element": "O",
                        "occu": 1
                    }
                ],
                "abc": [
                    0.14257968,
                    0.57226195,
                    0.14257968
                ],
                "xyz": [
                    3.431980950356735,
                    1.369060572669667,
                    3.431980950356735
                ],
                "label": "O",
                "properties": {}
            },
            {
                "species": [
                    {
                        "element": "O",
                        "occu": 1
                    }
                ],
                "abc": [
                    0.85742032,
                    0.85742032,
                    0.42773805
                ],
                "xyz": [
                    6.170092589643264,
                    6.170092589643264,
                    8.233012967330332
                ],
                "label": "O",
                "properties": {}
            },
            {
                "species": [
                    {
                        "element": "O",
                        "occu": 1
                    }
                ],
                "abc": [
                    0.85742032,
                    0.42773805,
                    0.85742032
                ],
                "xyz": [
                    6.170092589643264,
                    8.233012967330332,
                    6.170092589643264
                ],
                "label": "O",
                "properties": {}
            },
            {
                "species": [
                    {
                        "element": "O",
                        "occu": 1
                    }
                ],
                "abc": [
                    0.57226195,
                    0.14257968,
                    0.14257968
                ],
                "xyz": [
                    1.369060572669667,
                    3.431980950356735,
                    3.431980950356735
                ],
                "label": "O",
                "properties": {}
            },
            {
                "species": [
                    {
                        "element": "O",
                        "occu": 1
                    }
                ],
                "abc": [
                    0.42773805,
                    0.85742032,
                    0.85742032
                ],
                "xyz": [
                    8.233012967330332,
                    6.170092589643264,
                    6.170092589643264
                ],
                "label": "O",
                "properties": {}
            }
        ]
    },
    "spacegroup": {
        "source": "spglib",
        "symbol": "Fm-3m",
        "number": 225,
        "point_group": "m-3m",
        "crystal_system": "cubic",
        "hall": "-F 4 2 3"
    },
    "dielectric": {
        "epsilon_ionic": [
            [
                11.94921843,
                -0.0,
                -0.0
            ],
            [
                -0.0,
                11.94970988,
                0.0
            ],
            [
                -0.0,
                0.0,
                11.94793819
            ]
        ],
        "epsilon_ionic_avg": 11.948955500000002,
        "epsilon_ionic_eig": [
            11.94921843,
            11.94970988,
            11.94793819
        ],
        "epsilon_electronic": [
            [
                9.62168933,
                0.0,
                -0.0
            ],
            [
                0.0,
                9.62168933,
                -0.0
            ],
            [
                -0.0,
                0.0,
                9.62168933
            ]
        ],
        "epsilon_electronic_avg": 9.62168933,
        "epsilon_electronic_eig": [
            9.62168933,
            9.62168933,
            9.62168933
        ]
    },
    "phonon": {
        "lowest_freq": -0.006771143002714424,
        "frequency": [
            -0.006771143002714424,
            -0.006771143002714424,
            -0.006771143002714424,
            0.8260622752970633,
            0.8260622752970633,
            0.8260622752970633,
            3.0198192231451966,
            3.0198192231451966,
            3.0198192231451966,
            3.0741903624223363,
            3.0741903624223363,
            3.0741903624223363,
            3.863678825186995,
            3.863678825186995,
            4.685698049815713,
            4.685698049815713,
            4.685698049815713,
            4.954072982992259,
            4.954072982992259,
            4.954072982992259,
            6.556964786041418,
            6.699849771567279,
            6.699849771567279,
            6.699849771567279,
            11.573904907213597,
            11.573904907213597,
            11.573904907213597,
            13.626517815929168,
            14.735072886067464,
            15.705953808780746,
            15.705953808780746,
            15.705953808780746,
            18.115171445938724,
            18.115171445938724,
            18.115171445938724,
            18.314974361812972,
            18.314974361812972,
            18.314974361812972,
            18.37899720183744,
            18.37899720183744,
            19.3170486438277,
            19.3170486438277,
            19.486733727146248,
            19.486733727146248,
            19.486733727146248,
            19.69825264965569,
            19.69825264965569,
            19.69825264965569
        ]
    },
    "born_effective_charge": {
        "avg_abs_trace": 1.1363520833333334,
        "tensors": [
            [
                [
                    2.42977,
                    -0.0,
                    -0.0
                ],
                [
                    0.0,
                    2.42981,
                    0.0
                ],
                [
                    -0.0,
                    0.0,
                    2.42964
                ]
            ],
            [
                [
                    3.43725,
                    -0.0,
                    -0.0
                ],
                [
                    0.0,
                    3.43733,
                    0.0
                ],
                [
                    -0.0,
                    0.0,
                    3.43734
                ]
            ],
            [
                [
                    2.08603,
                    -0.0,
                    -0.0
                ],
                [
                    0.0,
                    -0.23713,
                    2.00713
                ],
                [
                    -0.0,
                    2.00674,
                    -0.23717
                ]
            ],
            [
                [
                    2.08603,
                    -0.0,
                    0.0
                ],
                [
                    0.0,
                    -0.23713,
                    -2.00713
                ],
                [
                    -0.0,
                    -2.00674,
                    -0.23717
                ]
            ],
            [
                [
                    -0.23706,
                    -0.0,
                    2.00707
                ],
                [
                    0.0,
                    2.08614,
                    0.0
                ],
                [
                    2.00674,
                    0.0,
                    -0.23717
                ]
            ],
            [
                [
                    -0.23706,
                    -0.0,
                    -2.00707
                ],
                [
                    0.0,
                    2.08614,
                    0.0
                ],
                [
                    -2.00674,
                    0.0,
                    -0.23717
                ]
            ],
            [
                [
                    -0.23706,
                    2.00707,
                    -0.0
                ],
                [
                    2.00713,
                    -0.23713,
                    0.0
                ],
                [
                    -0.0,
                    0.0,
                    2.08621
                ]
            ],
            [
                [
                    -0.23706,
                    -2.00707,
                    0.0
                ],
                [
                    -2.00713,
                    -0.23713,
                    0.0
                ],
                [
                    -0.0,
                    0.0,
                    2.08621
                ]
            ],
            [
                [
                    -1.13638,
                    0.368,
                    0.368
                ],
                [
                    0.36808,
                    -1.13636,
                    0.36808
                ],
                [
                    0.36808,
                    0.36808,
                    -1.13633
                ]
            ],
            [
                [
                    -1.13633,
                    0.36804,
                    0.36804
                ],
                [
                    0.36797,
                    -1.13636,
                    0.36797
                ],
                [
                    0.36793,
                    0.36793,
                    -1.13635
                ]
            ],
            [
                [
                    -1.13633,
                    0.36804,
                    -0.36804
                ],
                [
                    0.36797,
                    -1.13636,
                    -0.36797
                ],
                [
                    -0.36808,
                    -0.36808,
                    -1.13633
                ]
            ],
            [
                [
                    -1.13633,
                    -0.36804,
                    0.36804
                ],
                [
                    -0.36808,
                    -1.13636,
                    -0.36808
                ],
                [
                    0.36793,
                    -0.36793,
                    -1.13635
                ]
            ],
            [
                [
                    -1.13638,
                    0.368,
                    -0.368
                ],
                [
                    0.36808,
                    -1.13636,
                    -0.36808
                ],
                [
                    -0.36793,
                    -0.36793,
                    -1.13635
                ]
            ],
            [
                [
                    -1.13638,
                    -0.368,
                    0.368
                ],
                [
                    -0.36797,
                    -1.13636,
                    -0.36797
                ],
                [
                    0.36808,
                    -0.36808,
                    -1.13633
                ]
            ],
            [
                [
                    -1.13638,
                    -0.368,
                    -0.368
                ],
                [
                    -0.36797,
                    -1.13636,
                    0.36797
                ],
                [
                    -0.36793,
                    0.36793,
                    -1.13635
                ]
            ],
            [
                [
                    -1.13633,
                    -0.36804,
                    -0.36804
                ],
                [
                    -0.36808,
                    -1.13636,
                    0.36808
                ],
                [
                    -0.36808,
                    0.36808,
                    -1.13633
                ]
            ]
        ]
    },
    "band_gap": 1.7836000000000007,
    "is_direct": false,
    "formula": "TlPt3O4"
}