{
    "mp_id": "mp-1078409",
    "nelements": 4,
    "nsites": 10,
    "elements": [
        "Ba",
        "Bi",
        "La",
        "O"
    ],
    "structure": {
        "@module": "pymatgen.core.structure",
        "@class": "Structure",
        "charge": null,
        "lattice": {
            "matrix": [
                [
                    5.34566925,
                    -3.09383606,
                    0.00024523
                ],
                [
                    5.34566925,
                    3.09383606,
                    0.00024523
                ],
                [
                    -3.59895671,
                    0.0,
                    5.12299148
                ]
            ],
            "a": 6.176406832187274,
            "b": 6.176406832187274,
            "c": 6.260793168968818,
            "alpha": 119.83413416618346,
            "beta": 119.83413416618346,
            "gamma": 60.12070647249164,
            "volume": 169.45992372924366
        },
        "sites": [
            {
                "species": [
                    {
                        "element": "Ba",
                        "occu": 1
                    }
                ],
                "abc": [
                    0.247396,
                    0.247396,
                    0.23804236
                ],
                "xyz": [
                    1.7882902307597646,
                    0.0,
                    1.219610320001253
                ],
                "label": "Ba",
                "properties": {}
            },
            {
                "species": [
                    {
                        "element": "Ba",
                        "occu": 1
                    }
                ],
                "abc": [
                    0.752604,
                    0.752604,
                    0.76195764
                ],
                "xyz": [
                    5.304091559240236,
                    0.0,
                    3.9038716199987467
                ],
                "label": "Ba",
                "properties": {}
            },
            {
                "species": [
                    {
                        "element": "La",
                        "occu": 1
                    }
                ],
                "abc": [
                    0.0,
                    0.0,
                    0.5
                ],
                "xyz": [
                    -1.799478355,
                    0.0,
                    2.56149574
                ],
                "label": "La",
                "properties": {}
            },
            {
                "species": [
                    {
                        "element": "Bi",
                        "occu": 1
                    }
                ],
                "abc": [
                    0.5,
                    0.5,
                    0.0
                ],
                "xyz": [
                    5.34566925,
                    0.0,
                    0.00024523
                ],
                "label": "Bi",
                "properties": {}
            },
            {
                "species": [
                    {
                        "element": "O",
                        "occu": 1
                    }
                ],
                "abc": [
                    0.7848872,
                    0.30269611,
                    0.80827246
                ],
                "xyz": [
                    2.904923063655011,
                    -1.491820182052705,
                    4.141039634153752
                ],
                "label": "O",
                "properties": {}
            },
            {
                "species": [
                    {
                        "element": "O",
                        "occu": 1
                    }
                ],
                "abc": [
                    0.69730389,
                    0.2151128,
                    0.19172754
                ],
                "xyz": [
                    4.187458726344989,
                    -1.4918201820527057,
                    0.9824423058462478
                ],
                "label": "O",
                "properties": {}
            },
            {
                "species": [
                    {
                        "element": "O",
                        "occu": 1
                    }
                ],
                "abc": [
                    0.2151128,
                    0.69730389,
                    0.19172754
                ],
                "xyz": [
                    4.187458726344989,
                    1.4918201820527057,
                    0.9824423058462478
                ],
                "label": "O",
                "properties": {}
            },
            {
                "species": [
                    {
                        "element": "O",
                        "occu": 1
                    }
                ],
                "abc": [
                    0.30269611,
                    0.7848872,
                    0.80827246
                ],
                "xyz": [
                    2.904923063655011,
                    1.491820182052705,
                    4.141039634153752
                ],
                "label": "O",
                "properties": {}
            },
            {
                "species": [
                    {
                        "element": "O",
                        "occu": 1
                    }
                ],
                "abc": [
                    0.73644789,
                    0.73644789,
                    0.31428606
                ],
                "xyz": [
                    6.742511755104303,
                    0.0,
                    1.610446005894898
                ],
                "label": "O",
                "properties": {}
            },
            {
                "species": [
                    {
                        "element": "O",
                        "occu": 1
                    }
                ],
                "abc": [
                    0.26355211,
                    0.26355211,
                    0.68571394
                ],
                "xyz": [
                    0.349870034895698,
                    0.0,
                    3.5130359341051016
                ],
                "label": "O",
                "properties": {}
            }
        ]
    },
    "spacegroup": {
        "source": "spglib",
        "symbol": "C2/m",
        "number": 12,
        "point_group": "2/m",
        "crystal_system": "monoclinic",
        "hall": "-C 2y"
    },
    "dielectric": {
        "epsilon_ionic": [
            [
                16.11668903,
                -1e-08,
                1.2227369
            ],
            [
                -1e-08,
                25.43795624,
                2e-08
            ],
            [
                1.2227369,
                2e-08,
                14.53758333
            ]
        ],
        "epsilon_ionic_avg": 18.69740953333334,
        "epsilon_ionic_eig": [
            16.78263582945538,
            13.871636530544624,
            25.437956240000005
        ],
        "epsilon_electronic": [
            [
                4.95517409,
                0.0,
                -0.04514868
            ],
            [
                0.0,
                4.93193273,
                0.0
            ],
            [
                -0.04519919,
                0.0,
                5.03478168
            ]
        ],
        "epsilon_electronic_avg": 4.973962833333333,
        "epsilon_electronic_eig": [
            4.93476969733444,
            5.05518607266556,
            4.93193273
        ]
    },
    "phonon": {
        "lowest_freq": -0.020583667387828065,
        "frequency": [
            -0.020583667387828065,
            -0.016630179670897405,
            -0.014739499275086552,
            1.779110519497395,
            2.227039543892571,
            2.410605104815768,
            2.8551237559403186,
            3.0808289718163127,
            3.1704722892219497,
            3.2949694878048996,
            3.5036812913781237,
            4.797930009814311,
            4.854792181231601,
            5.220094870155996,
            5.294968300716195,
            5.881567601811478,
            6.076029730924644,
            7.165102702624785,
            7.244805687798657,
            7.405144332116748,
            8.053308076747319,
            8.83891605888093,
            9.164906783659578,
            9.581641842803483,
            14.62202070714685,
            14.887333966063263,
            14.894845585322445,
            15.136653365839203,
            15.493926023803283,
            19.045642928532434
        ]
    },
    "born_effective_charge": {
        "avg_abs_trace": 2.980973,
        "tensors": [
            [
                [
                    2.60774,
                    -0.0,
                    -0.07554
                ],
                [
                    -1e-05,
                    2.64415,
                    -0.00015
                ],
                [
                    -0.16817,
                    0.0,
                    2.73046
                ]
            ],
            [
                [
                    2.60785,
                    -0.0,
                    -0.07566
                ],
                [
                    1e-05,
                    2.64415,
                    0.00015
                ],
                [
                    -0.16841,
                    0.0,
                    2.73062
                ]
            ],
            [
                [
                    4.44621,
                    -0.0,
                    -0.37511
                ],
                [
                    -0.0,
                    4.41189,
                    0.0
                ],
                [
                    0.35443,
                    0.0,
                    4.77191
                ]
            ],
            [
                [
                    5.12319,
                    -0.0,
                    0.32866
                ],
                [
                    -0.0,
                    5.07682,
                    0.0
                ],
                [
                    -0.29407,
                    0.0,
                    4.91961
                ]
            ],
            [
                [
                    -2.24218,
                    0.50343,
                    0.39631
                ],
                [
                    0.47482,
                    -2.77632,
                    -0.63231
                ],
                [
                    0.4314,
                    -0.58314,
                    -2.43772
                ]
            ],
            [
                [
                    -2.24225,
                    -0.50346,
                    0.39617
                ],
                [
                    -0.47482,
                    -2.77632,
                    0.63231
                ],
                [
                    0.43167,
                    0.58328,
                    -2.43768
                ]
            ],
            [
                [
                    -2.24225,
                    0.50346,
                    0.39617
                ],
                [
                    0.47477,
                    -2.77635,
                    -0.63209
                ],
                [
                    0.43167,
                    -0.58328,
                    -2.43768
                ]
            ],
            [
                [
                    -2.24218,
                    -0.50343,
                    0.39631
                ],
                [
                    -0.47477,
                    -2.77635,
                    0.63209
                ],
                [
                    0.4314,
                    0.58314,
                    -2.43772
                ]
            ],
            [
                [
                    -2.90805,
                    -0.0,
                    -0.69357
                ],
                [
                    -3e-05,
                    -1.83584,
                    -8e-05
                ],
                [
                    -0.72475,
                    0.0,
                    -2.70101
                ]
            ],
            [
                [
                    -2.90807,
                    -0.0,
                    -0.69373
                ],
                [
                    3e-05,
                    -1.83584,
                    8e-05
                ],
                [
                    -0.72515,
                    0.0,
                    -2.70078
                ]
            ]
        ]
    },
    "band_gap": 1.9600999999999997,
    "is_direct": false,
    "formula": "Ba2LaBiO6"
}