{
    "mp_id": "mp-19232",
    "nelements": 3,
    "nsites": 28,
    "elements": [
        "Cr",
        "K",
        "O"
    ],
    "structure": {
        "@module": "pymatgen.core.structure",
        "@class": "Structure",
        "charge": null,
        "lattice": {
            "matrix": [
                [
                    7.68739942,
                    0.0,
                    0.0
                ],
                [
                    0.0,
                    5.89427152,
                    0.0
                ],
                [
                    0.0,
                    0.0,
                    10.41825776
                ]
            ],
            "a": 7.68739942,
            "b": 5.89427152,
            "c": 10.41825776,
            "alpha": 90.0,
            "beta": 90.0,
            "gamma": 90.0,
            "volume": 472.06813110076155
        },
        "sites": [
            {
                "species": [
                    {
                        "element": "K",
                        "occu": 1
                    }
                ],
                "abc": [
                    0.16389476,
                    0.75,
                    0.41729601
                ],
                "xyz": [
                    1.2599244829650393,
                    4.42070364,
                    4.347497394399538
                ],
                "label": "K",
                "properties": {}
            },
            {
                "species": [
                    {
                        "element": "K",
                        "occu": 1
                    }
                ],
                "abc": [
                    0.83610524,
                    0.25,
                    0.58270399
                ],
                "xyz": [
                    6.427474937034961,
                    1.47356788,
                    6.070760365600462
                ],
                "label": "K",
                "properties": {}
            },
            {
                "species": [
                    {
                        "element": "K",
                        "occu": 1
                    }
                ],
                "abc": [
                    0.66389476,
                    0.75,
                    0.08270399
                ],
                "xyz": [
                    5.103624192965039,
                    4.42070364,
                    0.8616314856004624
                ],
                "label": "K",
                "properties": {}
            },
            {
                "species": [
                    {
                        "element": "K",
                        "occu": 1
                    }
                ],
                "abc": [
                    0.33610524,
                    0.25,
                    0.91729601
                ],
                "xyz": [
                    2.583775227034961,
                    1.47356788,
                    9.556626274399537
                ],
                "label": "K",
                "properties": {}
            },
            {
                "species": [
                    {
                        "element": "K",
                        "occu": 1
                    }
                ],
                "abc": [
                    0.51145149,
                    0.25,
                    0.30311088
                ],
                "xyz": [
                    3.931731887584136,
                    1.47356788,
                    3.157887277700429
                ],
                "label": "K",
                "properties": {}
            },
            {
                "species": [
                    {
                        "element": "K",
                        "occu": 1
                    }
                ],
                "abc": [
                    0.48854851,
                    0.75,
                    0.69688912
                ],
                "xyz": [
                    3.755667532415864,
                    4.42070364,
                    7.260370482299571
                ],
                "label": "K",
                "properties": {}
            },
            {
                "species": [
                    {
                        "element": "K",
                        "occu": 1
                    }
                ],
                "abc": [
                    0.98854851,
                    0.75,
                    0.80311088
                ],
                "xyz": [
                    7.599367242415864,
                    4.42070364,
                    8.367016157700428
                ],
                "label": "K",
                "properties": {}
            },
            {
                "species": [
                    {
                        "element": "K",
                        "occu": 1
                    }
                ],
                "abc": [
                    0.01145149,
                    0.25,
                    0.19688912
                ],
                "xyz": [
                    0.0880321775841358,
                    1.47356788,
                    2.051241602299571
                ],
                "label": "K",
                "properties": {}
            },
            {
                "species": [
                    {
                        "element": "Cr",
                        "occu": 1
                    }
                ],
                "abc": [
                    0.72909652,
                    0.75,
                    0.42141878
                ],
                "xyz": [
                    5.604856164972019,
                    4.42070364,
                    4.390449474944733
                ],
                "label": "Cr",
                "properties": {}
            },
            {
                "species": [
                    {
                        "element": "Cr",
                        "occu": 1
                    }
                ],
                "abc": [
                    0.27090348,
                    0.25,
                    0.57858122
                ],
                "xyz": [
                    2.0825432550279817,
                    1.47356788,
                    6.027808285055267
                ],
                "label": "Cr",
                "properties": {}
            },
            {
                "species": [
                    {
                        "element": "Cr",
                        "occu": 1
                    }
                ],
                "abc": [
                    0.22909652,
                    0.75,
                    0.07858122
                ],
                "xyz": [
                    1.7611564549720184,
                    4.42070364,
                    0.818679405055267
                ],
                "label": "Cr",
                "properties": {}
            },
            {
                "species": [
                    {
                        "element": "Cr",
                        "occu": 1
                    }
                ],
                "abc": [
                    0.77090348,
                    0.25,
                    0.92141878
                ],
                "xyz": [
                    5.926242965027981,
                    1.47356788,
                    9.599578354944732
                ],
                "label": "Cr",
                "properties": {}
            },
            {
                "species": [
                    {
                        "element": "O",
                        "occu": 1
                    }
                ],
                "abc": [
                    0.30323993,
                    0.52099807,
                    0.15226782
                ],
                "xyz": [
                    2.3311264620028407,
                    3.0709040859759664,
                    1.5863653973132832
                ],
                "label": "O",
                "properties": {}
            },
            {
                "species": [
                    {
                        "element": "O",
                        "occu": 1
                    }
                ],
                "abc": [
                    0.69676007,
                    0.02099807,
                    0.84773218
                ],
                "xyz": [
                    5.3562729579971595,
                    0.1237683259759664,
                    8.831892362686716
                ],
                "label": "O",
                "properties": {}
            },
            {
                "species": [
                    {
                        "element": "O",
                        "occu": 1
                    }
                ],
                "abc": [
                    0.80323993,
                    0.97900193,
                    0.34773218
                ],
                "xyz": [
                    6.174826172002841,
                    5.770503194024034,
                    3.6227634826867168
                ],
                "label": "O",
                "properties": {}
            },
            {
                "species": [
                    {
                        "element": "O",
                        "occu": 1
                    }
                ],
                "abc": [
                    0.19676007,
                    0.47900193,
                    0.65226782
                ],
                "xyz": [
                    1.5125732479971594,
                    2.823367434024034,
                    6.795494277313283
                ],
                "label": "O",
                "properties": {}
            },
            {
                "species": [
                    {
                        "element": "O",
                        "occu": 1
                    }
                ],
                "abc": [
                    0.69676007,
                    0.47900193,
                    0.84773218
                ],
                "xyz": [
                    5.3562729579971595,
                    2.823367434024034,
                    8.831892362686716
                ],
                "label": "O",
                "properties": {}
            },
            {
                "species": [
                    {
                        "element": "O",
                        "occu": 1
                    }
                ],
                "abc": [
                    0.30323993,
                    0.97900193,
                    0.15226782
                ],
                "xyz": [
                    2.3311264620028407,
                    5.770503194024034,
                    1.5863653973132832
                ],
                "label": "O",
                "properties": {}
            },
            {
                "species": [
                    {
                        "element": "O",
                        "occu": 1
                    }
                ],
                "abc": [
                    0.19676007,
                    0.02099807,
                    0.65226782
                ],
                "xyz": [
                    1.5125732479971594,
                    0.1237683259759664,
                    6.795494277313283
                ],
                "label": "O",
                "properties": {}
            },
            {
                "species": [
                    {
                        "element": "O",
                        "occu": 1
                    }
                ],
                "abc": [
                    0.80323993,
                    0.52099807,
                    0.34773218
                ],
                "xyz": [
                    6.174826172002841,
                    3.0709040859759664,
                    3.6227634826867168
                ],
                "label": "O",
                "properties": {}
            },
            {
                "species": [
                    {
                        "element": "O",
                        "occu": 1
                    }
                ],
                "abc": [
                    0.69742132,
                    0.25,
                    0.07122498
                ],
                "xyz": [
                    5.3613562508636345,
                    1.47356788,
                    0.7420402005908447
                ],
                "label": "O",
                "properties": {}
            },
            {
                "species": [
                    {
                        "element": "O",
                        "occu": 1
                    }
                ],
                "abc": [
                    0.30257868,
                    0.75,
                    0.92877502
                ],
                "xyz": [
                    2.3260431691363657,
                    4.42070364,
                    9.676217559409155
                ],
                "label": "O",
                "properties": {}
            },
            {
                "species": [
                    {
                        "element": "O",
                        "occu": 1
                    }
                ],
                "abc": [
                    0.19742132,
                    0.25,
                    0.42877502
                ],
                "xyz": [
                    1.5176565408636344,
                    1.47356788,
                    4.467088679409155
                ],
                "label": "O",
                "properties": {}
            },
            {
                "species": [
                    {
                        "element": "O",
                        "occu": 1
                    }
                ],
                "abc": [
                    0.80257868,
                    0.75,
                    0.57122498
                ],
                "xyz": [
                    6.169742879136366,
                    4.42070364,
                    5.951169080590844
                ],
                "label": "O",
                "properties": {}
            },
            {
                "species": [
                    {
                        "element": "O",
                        "occu": 1
                    }
                ],
                "abc": [
                    0.51470831,
                    0.75,
                    0.42008501
                ],
                "xyz": [
                    3.95676836376318,
                    4.42070364,
                    4.3765539152921775
                ],
                "label": "O",
                "properties": {}
            },
            {
                "species": [
                    {
                        "element": "O",
                        "occu": 1
                    }
                ],
                "abc": [
                    0.48529169,
                    0.25,
                    0.57991499
                ],
                "xyz": [
                    3.73063105623682,
                    1.47356788,
                    6.041703844707822
                ],
                "label": "O",
                "properties": {}
            },
            {
                "species": [
                    {
                        "element": "O",
                        "occu": 1
                    }
                ],
                "abc": [
                    0.98529169,
                    0.25,
                    0.92008501
                ],
                "xyz": [
                    7.5743307662368204,
                    1.47356788,
                    9.585682795292177
                ],
                "label": "O",
                "properties": {}
            },
            {
                "species": [
                    {
                        "element": "O",
                        "occu": 1
                    }
                ],
                "abc": [
                    0.01470831,
                    0.75,
                    0.07991499
                ],
                "xyz": [
                    0.1130686537631802,
                    4.42070364,
                    0.8325749647078224
                ],
                "label": "O",
                "properties": {}
            }
        ]
    },
    "spacegroup": {
        "source": "spglib",
        "symbol": "Pnma",
        "number": 62,
        "point_group": "mmm",
        "crystal_system": "orthorhombic",
        "hall": "-P 2ac 2n"
    },
    "dielectric": {
        "epsilon_ionic": [
            [
                3.0858138,
                -1.86e-06,
                8e-06
            ],
            [
                -1.86e-06,
                6.64031967,
                -1.78e-06
            ],
            [
                8e-06,
                -1.78e-06,
                5.69034653
            ]
        ],
        "epsilon_ionic_avg": 5.138826666666668,
        "epsilon_ionic_eig": [
            3.0858137999744546,
            5.690346530021241,
            6.64031967000431
        ],
        "epsilon_electronic": [
            [
                2.82210978,
                0.0,
                0.0
            ],
            [
                0.0,
                2.82336339,
                0.0
            ],
            [
                0.0,
                0.0,
                2.75844971
            ]
        ],
        "epsilon_electronic_avg": 2.8013076266666666,
        "epsilon_electronic_eig": [
            2.82210978,
            2.82336339,
            2.75844971
        ]
    },
    "phonon": {
        "lowest_freq": -0.220381709558904,
        "frequency": [
            -0.220381709558904,
            -0.05557411634775604,
            -0.025748706417565676,
            0.7421234535881699,
            0.8938754660643335,
            1.135573162285536,
            1.3338390013040065,
            1.5096124099869954,
            1.5674544529189327,
            1.6089441936135525,
            1.647686547098356,
            1.9268303154263349,
            2.3061640824497194,
            2.3245646849853054,
            2.3929348960472976,
            2.4738907574079674,
            2.5420873596109925,
            2.6172696100398674,
            2.640006563248742,
            2.801010116080836,
            2.8594893414646676,
            3.141554957197566,
            3.154464670691341,
            3.154729392556191,
            3.2200166699908515,
            3.223368658387234,
            3.2449481707251113,
            3.2856482770590043,
            3.400105213818304,
            3.460101179202581,
            3.460894044710107,
            3.499718305713833,
            3.616495222291018,
            3.8153143065660347,
            3.952785187688675,
            3.996036311807343,
            4.07125353778191,
            4.093021261946637,
            4.103615119477114,
            4.106280510940317,
            4.225910656657956,
            4.554793433957976,
            4.622142024375446,
            4.726707773955745,
            4.748838342535666,
            4.966106343022193,
            5.20384803390335,
            5.2113195413258735,
            10.123520361416876,
            10.172972604472763,
            10.241658041672885,
            10.27657446552161,
            10.303493281917195,
            10.385944515017565,
            10.424258588781006,
            10.550276015209276,
            11.193096145441787,
            11.253177091270423,
            11.266554565664288,
            11.283274652610245,
            11.307601205461532,
            11.341687849932624,
            11.403329974040274,
            11.543535293543941,
            11.674847295120305,
            11.702149042888657,
            11.724810817094792,
            11.787758335007814,
            26.071542677218957,
            26.096512850159332,
            26.100576814174048,
            26.10224496558538,
            27.1353749596307,
            27.469489232863154,
            27.474585847596806,
            27.48235892427504,
            27.49063006515463,
            27.525564331956744,
            27.605224468536505,
            27.811704893000684,
            28.273198155382463,
            28.332021828243082,
            28.71947391375037,
            28.912115741894272
        ]
    },
    "born_effective_charge": {
        "avg_abs_trace": 1.4505661904761904,
        "tensors": [
            [
                [
                    1.39584,
                    0.0,
                    0.05537
                ],
                [
                    4e-05,
                    1.17579,
                    -1e-05
                ],
                [
                    -0.02151,
                    0.0,
                    1.07259
                ]
            ],
            [
                [
                    1.39591,
                    0.0,
                    0.0553
                ],
                [
                    -4e-05,
                    1.17579,
                    1e-05
                ],
                [
                    -0.0215,
                    0.0,
                    1.07269
                ]
            ],
            [
                [
                    1.39584,
                    0.0,
                    -0.05537
                ],
                [
                    4e-05,
                    1.17579,
                    1e-05
                ],
                [
                    0.0215,
                    0.0,
                    1.07269
                ]
            ],
            [
                [
                    1.39591,
                    0.0,
                    -0.0553
                ],
                [
                    -4e-05,
                    1.17579,
                    -1e-05
                ],
                [
                    0.02151,
                    0.0,
                    1.07259
                ]
            ],
            [
                [
                    1.16274,
                    0.0,
                    -0.0287
                ],
                [
                    -4e-05,
                    1.36495,
                    2e-05
                ],
                [
                    0.00922,
                    0.0,
                    1.4306
                ]
            ],
            [
                [
                    1.1628,
                    0.0,
                    -0.02866
                ],
                [
                    4e-05,
                    1.36495,
                    -2e-05
                ],
                [
                    0.00915,
                    0.0,
                    1.4306
                ]
            ],
            [
                [
                    1.1628,
                    0.0,
                    0.02866
                ],
                [
                    4e-05,
                    1.36495,
                    2e-05
                ],
                [
                    -0.00922,
                    0.0,
                    1.4306
                ]
            ],
            [
                [
                    1.16274,
                    0.0,
                    0.0287
                ],
                [
                    -4e-05,
                    1.36495,
                    -2e-05
                ],
                [
                    -0.00915,
                    0.0,
                    1.4306
                ]
            ],
            [
                [
                    2.63618,
                    0.0,
                    -0.08222
                ],
                [
                    -0.00011,
                    2.60027,
                    5e-05
                ],
                [
                    0.01099,
                    0.0,
                    2.39247
                ]
            ],
            [
                [
                    2.63527,
                    0.0,
                    -0.08275
                ],
                [
                    0.00011,
                    2.60027,
                    -5e-05
                ],
                [
                    0.01043,
                    0.0,
                    2.39217
                ]
            ],
            [
                [
                    2.63618,
                    0.0,
                    0.08222
                ],
                [
                    -0.00011,
                    2.60027,
                    -5e-05
                ],
                [
                    -0.01043,
                    0.0,
                    2.39217
                ]
            ],
            [
                [
                    2.63527,
                    0.0,
                    0.08275
                ],
                [
                    0.00011,
                    2.60027,
                    5e-05
                ],
                [
                    -0.01099,
                    0.0,
                    2.39247
                ]
            ],
            [
                [
                    -0.8816,
                    0.4862,
                    -0.35589
                ],
                [
                    0.52288,
                    -1.93795,
                    0.70838
                ],
                [
                    -0.23983,
                    0.67628,
                    -1.0325
                ]
            ],
            [
                [
                    -0.88168,
                    -0.48606,
                    -0.35615
                ],
                [
                    -0.52288,
                    -1.93795,
                    -0.70838
                ],
                [
                    -0.23993,
                    -0.67623,
                    -1.03205
                ]
            ],
            [
                [
                    -0.8816,
                    -0.4862,
                    0.35589
                ],
                [
                    -0.52344,
                    -1.93949,
                    0.70874
                ],
                [
                    0.23993,
                    0.67623,
                    -1.03205
                ]
            ],
            [
                [
                    -0.88168,
                    0.48606,
                    0.35615
                ],
                [
                    0.52344,
                    -1.93949,
                    -0.70874
                ],
                [
                    0.23983,
                    -0.67628,
                    -1.0325
                ]
            ],
            [
                [
                    -0.88168,
                    0.48606,
                    -0.35615
                ],
                [
                    0.52344,
                    -1.93949,
                    0.70874
                ],
                [
                    -0.23993,
                    0.67623,
                    -1.03205
                ]
            ],
            [
                [
                    -0.8816,
                    -0.4862,
                    -0.35589
                ],
                [
                    -0.52344,
                    -1.93949,
                    -0.70874
                ],
                [
                    -0.23983,
                    -0.67628,
                    -1.0325
                ]
            ],
            [
                [
                    -0.88168,
                    -0.48606,
                    0.35615
                ],
                [
                    -0.52288,
                    -1.93795,
                    0.70838
                ],
                [
                    0.23983,
                    0.67628,
                    -1.0325
                ]
            ],
            [
                [
                    -0.8816,
                    0.4862,
                    0.35589
                ],
                [
                    0.52288,
                    -1.93795,
                    -0.70838
                ],
                [
                    0.23993,
                    -0.67623,
                    -1.03205
                ]
            ],
            [
                [
                    -0.89577,
                    0.0,
                    0.60056
                ],
                [
                    -0.00044,
                    -0.7103,
                    0.00121
                ],
                [
                    0.51819,
                    0.0,
                    -2.23905
                ]
            ],
            [
                [
                    -0.89774,
                    0.0,
                    0.60386
                ],
                [
                    0.00044,
                    -0.7103,
                    -0.00121
                ],
                [
                    0.51648,
                    0.0,
                    -2.23469
                ]
            ],
            [
                [
                    -0.89577,
                    0.0,
                    -0.60056
                ],
                [
                    -0.00044,
                    -0.7103,
                    -0.00121
                ],
                [
                    -0.51648,
                    0.0,
                    -2.23469
                ]
            ],
            [
                [
                    -0.89774,
                    0.0,
                    -0.60386
                ],
                [
                    0.00044,
                    -0.7103,
                    0.00121
                ],
                [
                    -0.51819,
                    0.0,
                    -2.23905
                ]
            ],
            [
                [
                    -2.53648,
                    0.0,
                    0.05464
                ],
                [
                    -0.00037,
                    -0.55328,
                    -0.0
                ],
                [
                    -0.01695,
                    0.0,
                    -0.59426
                ]
            ],
            [
                [
                    -2.53218,
                    0.0,
                    0.05441
                ],
                [
                    0.00037,
                    -0.55328,
                    0.0
                ],
                [
                    -0.01229,
                    0.0,
                    -0.59403
                ]
            ],
            [
                [
                    -2.53218,
                    0.0,
                    -0.05441
                ],
                [
                    0.00037,
                    -0.55328,
                    -0.0
                ],
                [
                    0.01695,
                    0.0,
                    -0.59426
                ]
            ],
            [
                [
                    -2.53648,
                    0.0,
                    -0.05464
                ],
                [
                    -0.00037,
                    -0.55328,
                    0.0
                ],
                [
                    0.01229,
                    0.0,
                    -0.59403
                ]
            ]
        ]
    },
    "band_gap": 3.0785,
    "is_direct": true,
    "formula": "K2CrO4"
}