{
    "mp_id": "mp-16737",
    "nelements": 4,
    "nsites": 20,
    "elements": [
        "B",
        "Be",
        "Na",
        "O"
    ],
    "structure": {
        "@module": "pymatgen.core.structure",
        "@class": "Structure",
        "charge": null,
        "lattice": {
            "matrix": [
                [
                    2.88597073,
                    -4.07954367,
                    0.00122593
                ],
                [
                    2.88597073,
                    4.07954367,
                    0.00122593
                ],
                [
                    -1.55785392,
                    0.0,
                    8.67687683
                ]
            ],
            "a": 4.997149698854154,
            "b": 4.997149698854154,
            "c": 8.8156168450682,
            "alpha": 95.84373735636507,
            "beta": 95.84373735636507,
            "gamma": 109.44691771824883,
            "volume": 204.3290227569884
        },
        "sites": [
            {
                "species": [
                    {
                        "element": "Na",
                        "occu": 1
                    }
                ],
                "abc": [
                    0.31719685,
                    0.70917766,
                    0.57398372
                ],
                "xyz": [
                    2.0679040056599103,
                    1.5991028321969727,
                    4.981644304168252
                ],
                "label": "Na",
                "properties": {}
            },
            {
                "species": [
                    {
                        "element": "Na",
                        "occu": 1
                    }
                ],
                "abc": [
                    0.29082234,
                    0.68280315,
                    0.92601628
                ],
                "xyz": [
                    1.3672565743400904,
                    1.5991028321969727,
                    8.036122800831748
                ],
                "label": "Na",
                "properties": {}
            },
            {
                "species": [
                    {
                        "element": "Na",
                        "occu": 1
                    }
                ],
                "abc": [
                    0.68280315,
                    0.29082234,
                    0.42601628
                ],
                "xyz": [
                    2.14618353434009,
                    -1.5991028321969727,
                    3.697684385831748
                ],
                "label": "Na",
                "properties": {}
            },
            {
                "species": [
                    {
                        "element": "Na",
                        "occu": 1
                    }
                ],
                "abc": [
                    0.70917766,
                    0.31719685,
                    0.07398372
                ],
                "xyz": [
                    2.84683096565991,
                    -1.5991028321969727,
                    0.6432058891682519
                ],
                "label": "Na",
                "properties": {}
            },
            {
                "species": [
                    {
                        "element": "Be",
                        "occu": 1
                    }
                ],
                "abc": [
                    0.71197749,
                    0.28802251,
                    0.75
                ],
                "xyz": [
                    1.71758029,
                    -1.7295428550239764,
                    6.5088835525
                ],
                "label": "Be",
                "properties": {}
            },
            {
                "species": [
                    {
                        "element": "Be",
                        "occu": 1
                    }
                ],
                "abc": [
                    0.28802251,
                    0.71197749,
                    0.25
                ],
                "xyz": [
                    2.49650725,
                    1.7295428550239764,
                    2.1704451375
                ],
                "label": "Be",
                "properties": {}
            },
            {
                "species": [
                    {
                        "element": "B",
                        "occu": 1
                    }
                ],
                "abc": [
                    0.16126171,
                    0.17144667,
                    0.67626227
                ],
                "xyz": [
                    -0.09333118196188095,
                    0.0415499890972032,
                    5.868252298750497
                ],
                "label": "B",
                "properties": {}
            },
            {
                "species": [
                    {
                        "element": "B",
                        "occu": 1
                    }
                ],
                "abc": [
                    0.82855333,
                    0.83873829,
                    0.82373773
                ],
                "xyz": [
                    3.528491761961881,
                    0.04154998909720309,
                    7.149514806249502
                ],
                "label": "B",
                "properties": {}
            },
            {
                "species": [
                    {
                        "element": "B",
                        "occu": 1
                    }
                ],
                "abc": [
                    0.17144667,
                    0.16126171,
                    0.17626227
                ],
                "xyz": [
                    0.685595778038119,
                    -0.0415499890972032,
                    1.5298138837504975
                ],
                "label": "B",
                "properties": {}
            },
            {
                "species": [
                    {
                        "element": "B",
                        "occu": 1
                    }
                ],
                "abc": [
                    0.83873829,
                    0.82855333,
                    0.32373773
                ],
                "xyz": [
                    4.307418721961881,
                    -0.04154998909720309,
                    2.8110763912495025
                ],
                "label": "B",
                "properties": {}
            },
            {
                "species": [
                    {
                        "element": "O",
                        "occu": 1
                    }
                ],
                "abc": [
                    0.32851683,
                    0.98722362,
                    0.15820357
                ],
                "xyz": [
                    3.550730375294534,
                    2.687223115530519,
                    1.3743258966461513
                ],
                "label": "O",
                "properties": {}
            },
            {
                "species": [
                    {
                        "element": "O",
                        "occu": 1
                    }
                ],
                "abc": [
                    0.98722362,
                    0.32851683,
                    0.65820357
                ],
                "xyz": [
                    2.771803415294534,
                    -2.687223115530519,
                    5.7127643116461515
                ],
                "label": "O",
                "properties": {}
            },
            {
                "species": [
                    {
                        "element": "O",
                        "occu": 1
                    }
                ],
                "abc": [
                    0.24054548,
                    0.42319288,
                    0.12623288
                ],
                "xyz": [
                    1.7188770923973131,
                    0.745118044511958,
                    1.0961208484238452
                ],
                "label": "O",
                "properties": {}
            },
            {
                "species": [
                    {
                        "element": "O",
                        "occu": 1
                    }
                ],
                "abc": [
                    0.57680712,
                    0.75945452,
                    0.37376712
                ],
                "xyz": [
                    3.2741374076026863,
                    0.7451180445119578,
                    3.2447694265761546
                ],
                "label": "O",
                "properties": {}
            },
            {
                "species": [
                    {
                        "element": "O",
                        "occu": 1
                    }
                ],
                "abc": [
                    0.75945452,
                    0.57680712,
                    0.87376712
                ],
                "xyz": [
                    2.4952104476026866,
                    -0.7451180445119578,
                    7.583207841576154
                ],
                "label": "O",
                "properties": {}
            },
            {
                "species": [
                    {
                        "element": "O",
                        "occu": 1
                    }
                ],
                "abc": [
                    0.42319288,
                    0.24054548,
                    0.62623288
                ],
                "xyz": [
                    0.9399501323973132,
                    -0.745118044511958,
                    5.434559263423845
                ],
                "label": "O",
                "properties": {}
            },
            {
                "species": [
                    {
                        "element": "O",
                        "occu": 1
                    }
                ],
                "abc": [
                    0.92420727,
                    0.07579273,
                    0.25
                ],
                "xyz": [
                    2.49650725,
                    -3.4611441661929616,
                    2.1704451375
                ],
                "label": "O",
                "properties": {}
            },
            {
                "species": [
                    {
                        "element": "O",
                        "occu": 1
                    }
                ],
                "abc": [
                    0.07579273,
                    0.92420727,
                    0.75
                ],
                "xyz": [
                    1.71758029,
                    3.4611441661929616,
                    6.5088835525
                ],
                "label": "O",
                "properties": {}
            },
            {
                "species": [
                    {
                        "element": "O",
                        "occu": 1
                    }
                ],
                "abc": [
                    0.67148317,
                    0.01277638,
                    0.84179643
                ],
                "xyz": [
                    0.6633571647054659,
                    -2.687223115530519,
                    7.305002793353848
                ],
                "label": "O",
                "properties": {}
            },
            {
                "species": [
                    {
                        "element": "O",
                        "occu": 1
                    }
                ],
                "abc": [
                    0.01277638,
                    0.67148317,
                    0.34179643
                ],
                "xyz": [
                    1.4422841247054659,
                    2.687223115530519,
                    2.966564378353848
                ],
                "label": "O",
                "properties": {}
            }
        ]
    },
    "spacegroup": {
        "source": "spglib",
        "symbol": "C2/c",
        "number": 15,
        "point_group": "2/m",
        "crystal_system": "monoclinic",
        "hall": "-C 2yc"
    },
    "dielectric": {
        "epsilon_ionic": [
            [
                3.31151496,
                0.0,
                0.64761492
            ],
            [
                0.0,
                3.99356155,
                0.0
            ],
            [
                0.64761492,
                0.0,
                2.70578231
            ]
        ],
        "epsilon_ionic_avg": 3.3369529399999998,
        "epsilon_ionic_eig": [
            3.7235843631781433,
            2.2937129068218565,
            3.99356155
        ],
        "epsilon_electronic": [
            [
                2.54863024,
                0.0,
                -0.10738195
            ],
            [
                0.0,
                2.61069971,
                0.0
            ],
            [
                -0.10738174,
                0.0,
                2.28074255
            ]
        ],
        "epsilon_electronic_avg": 2.4800241666666665,
        "epsilon_electronic_eig": [
            2.5863599638712067,
            2.2430128261287927,
            2.61069971
        ]
    },
    "phonon": {
        "lowest_freq": -0.17977190020294562,
        "frequency": [
            -0.17977190020294562,
            -0.140842650335042,
            -0.03365776981343089,
            3.028748098815551,
            3.1384371353467873,
            3.6929898246654345,
            4.123496208480819,
            4.482816358976557,
            4.623466760330797,
            4.671038319959146,
            4.734025030187254,
            4.9402821643585115,
            4.987251142841967,
            5.250278028387608,
            5.372190126097936,
            5.647718733761245,
            5.765392640425569,
            6.30500845727934,
            6.606620736539955,
            6.703443904641455,
            6.9743313094423,
            7.420530717579848,
            7.7106457636891905,
            7.789241413037797,
            10.153141315090368,
            10.186109571704739,
            10.697165813681558,
            11.00795899774668,
            11.635083243791174,
            11.738258773869983,
            13.651950779522414,
            13.779353911784373,
            14.500656633505443,
            14.515409646627864,
            16.485377816834287,
            16.513986736201456,
            20.087405551322544,
            20.176119826470007,
            20.24475106835926,
            20.396543311776046,
            21.254439298549343,
            21.353700599240277,
            21.442403251858604,
            21.86625278739416,
            22.32146958671889,
            22.519691329467545,
            23.822054006172458,
            24.805529503193288,
            25.868352826937922,
            26.019545935114824,
            30.03878296416465,
            30.07477774707125,
            35.204374659186044,
            36.406871592629145,
            38.22447860733457,
            38.518847716962426,
            40.15975164040065,
            40.37423813823924,
            40.786192399808385,
            40.814693758067364
        ]
    },
    "born_effective_charge": {
        "avg_abs_trace": 1.556048833333333,
        "tensors": [
            [
                [
                    1.03434,
                    0.01766,
                    -0.00836
                ],
                [
                    0.022,
                    1.0723,
                    -0.03144
                ],
                [
                    0.01047,
                    -0.00182,
                    1.09513
                ]
            ],
            [
                [
                    1.03434,
                    -0.01766,
                    -0.00836
                ],
                [
                    -0.022,
                    1.0723,
                    0.03144
                ],
                [
                    0.01046,
                    0.00182,
                    1.09513
                ]
            ],
            [
                [
                    1.03434,
                    0.01766,
                    -0.00836
                ],
                [
                    0.02199,
                    1.07231,
                    -0.03145
                ],
                [
                    0.01046,
                    -0.00182,
                    1.09513
                ]
            ],
            [
                [
                    1.03434,
                    -0.01766,
                    -0.00836
                ],
                [
                    -0.02199,
                    1.07231,
                    0.03145
                ],
                [
                    0.01047,
                    0.00182,
                    1.09513
                ]
            ],
            [
                [
                    1.7704,
                    -0.0,
                    0.27367
                ],
                [
                    -0.0,
                    2.21823,
                    0.0
                ],
                [
                    0.03329,
                    0.0,
                    1.38582
                ]
            ],
            [
                [
                    1.7704,
                    0.0,
                    0.27367
                ],
                [
                    -0.0,
                    2.21821,
                    0.0
                ],
                [
                    0.03329,
                    -0.0,
                    1.38582
                ]
            ],
            [
                [
                    2.30583,
                    -0.26277,
                    -0.84104
                ],
                [
                    -0.41656,
                    2.48323,
                    -0.06688
                ],
                [
                    -0.73509,
                    -0.19361,
                    0.99231
                ]
            ],
            [
                [
                    2.30584,
                    0.26278,
                    -0.84104
                ],
                [
                    0.41656,
                    2.48323,
                    0.06688
                ],
                [
                    -0.7351,
                    0.19359,
                    0.9923
                ]
            ],
            [
                [
                    2.30583,
                    0.26277,
                    -0.84104
                ],
                [
                    0.41646,
                    2.48323,
                    0.0669
                ],
                [
                    -0.73509,
                    0.19361,
                    0.99231
                ]
            ],
            [
                [
                    2.30584,
                    -0.26278,
                    -0.84104
                ],
                [
                    -0.41646,
                    2.48323,
                    -0.0669
                ],
                [
                    -0.7351,
                    -0.19359,
                    0.9923
                ]
            ],
            [
                [
                    -1.28386,
                    -0.18391,
                    0.17543
                ],
                [
                    -0.25872,
                    -2.2323,
                    0.04891
                ],
                [
                    0.18343,
                    -0.01268,
                    -1.04748
                ]
            ],
            [
                [
                    -1.28386,
                    0.18391,
                    0.17543
                ],
                [
                    0.25861,
                    -2.23245,
                    -0.04899
                ],
                [
                    0.18343,
                    0.01268,
                    -1.04748
                ]
            ],
            [
                [
                    -1.86315,
                    -0.67841,
                    0.08715
                ],
                [
                    -0.64493,
                    -1.77851,
                    0.01272
                ],
                [
                    0.12638,
                    0.00963,
                    -1.23382
                ]
            ],
            [
                [
                    -1.86314,
                    0.6784,
                    0.08713
                ],
                [
                    0.64493,
                    -1.77851,
                    -0.01272
                ],
                [
                    0.12636,
                    -0.00962,
                    -1.23379
                ]
            ],
            [
                [
                    -1.86314,
                    -0.6784,
                    0.08713
                ],
                [
                    -0.64505,
                    -1.77839,
                    0.01257
                ],
                [
                    0.12636,
                    0.00962,
                    -1.23379
                ]
            ],
            [
                [
                    -1.86315,
                    0.67841,
                    0.08715
                ],
                [
                    0.64505,
                    -1.77839,
                    -0.01257
                ],
                [
                    0.12638,
                    -0.00963,
                    -1.23382
                ]
            ],
            [
                [
                    -2.15677,
                    -0.0,
                    0.89999
                ],
                [
                    0.0,
                    -1.30759,
                    0.0
                ],
                [
                    0.79638,
                    0.0,
                    -0.99815
                ]
            ],
            [
                [
                    -2.15677,
                    0.0,
                    0.89999
                ],
                [
                    -0.0,
                    -1.30768,
                    0.0
                ],
                [
                    0.79638,
                    -0.0,
                    -0.99815
                ]
            ],
            [
                [
                    -1.28383,
                    -0.18389,
                    0.17543
                ],
                [
                    -0.25861,
                    -2.23245,
                    0.04899
                ],
                [
                    0.18341,
                    -0.01269,
                    -1.04746
                ]
            ],
            [
                [
                    -1.28383,
                    0.18389,
                    0.17543
                ],
                [
                    0.25872,
                    -2.2323,
                    -0.04891
                ],
                [
                    0.18341,
                    0.01269,
                    -1.04746
                ]
            ]
        ]
    },
    "band_gap": 4.9632,
    "is_direct": false,
    "formula": "Na2BeB2O5"
}