{
    "mp_id": "mp-1210656",
    "nelements": 4,
    "nsites": 26,
    "elements": [
        "As",
        "Mg",
        "O",
        "Zn"
    ],
    "structure": {
        "@module": "pymatgen.core.structure",
        "@class": "Structure",
        "charge": null,
        "lattice": {
            "matrix": [
                [
                    5.27100503,
                    0.0,
                    0.00018905
                ],
                [
                    0.0,
                    8.34660442,
                    0.0
                ],
                [
                    -4.34257605,
                    0.0,
                    7.68997971
                ]
            ],
            "a": 5.271005033390236,
            "b": 8.34660442,
            "c": 8.831407288209807,
            "alpha": 90.0,
            "beta": 119.45161364573737,
            "gamma": 90.0,
            "volume": 338.32746255008146
        },
        "sites": [
            {
                "species": [
                    {
                        "element": "Mg",
                        "occu": 1
                    }
                ],
                "abc": [
                    0.0,
                    0.0,
                    0.0
                ],
                "xyz": [
                    0.0,
                    0.0,
                    0.0
                ],
                "label": "Mg",
                "properties": {}
            },
            {
                "species": [
                    {
                        "element": "Mg",
                        "occu": 1
                    }
                ],
                "abc": [
                    0.0,
                    0.5,
                    0.5
                ],
                "xyz": [
                    -2.171288025,
                    4.17330221,
                    3.844989855
                ],
                "label": "Mg",
                "properties": {}
            },
            {
                "species": [
                    {
                        "element": "Zn",
                        "occu": 1
                    }
                ],
                "abc": [
                    0.01061843,
                    0.63893832,
                    0.1074705
                ],
                "xyz": [
                    -0.4107290214408221,
                    5.332965405819374,
                    0.8264479718377465
                ],
                "label": "Zn",
                "properties": {}
            },
            {
                "species": [
                    {
                        "element": "Zn",
                        "occu": 1
                    }
                ],
                "abc": [
                    0.98938157,
                    0.36106168,
                    0.8925295
                ],
                "xyz": [
                    1.3391580014408224,
                    3.0136390141806255,
                    6.8637207881622535
                ],
                "label": "Zn",
                "properties": {}
            },
            {
                "species": [
                    {
                        "element": "Zn",
                        "occu": 1
                    }
                ],
                "abc": [
                    0.98938157,
                    0.13893832,
                    0.3925295
                ],
                "xyz": [
                    3.510446026440823,
                    1.1596631958193744,
                    3.0187309331622534
                ],
                "label": "Zn",
                "properties": {}
            },
            {
                "species": [
                    {
                        "element": "Zn",
                        "occu": 1
                    }
                ],
                "abc": [
                    0.01061843,
                    0.86106168,
                    0.6074705
                ],
                "xyz": [
                    -2.582017046440822,
                    7.186941224180626,
                    4.671437826837747
                ],
                "label": "Zn",
                "properties": {}
            },
            {
                "species": [
                    {
                        "element": "As",
                        "occu": 1
                    }
                ],
                "abc": [
                    0.35381837,
                    0.30430849,
                    0.30591777
                ],
                "xyz": [
                    0.5365072267049928,
                    2.5399425876775257,
                    2.3525683335912952
                ],
                "label": "As",
                "properties": {}
            },
            {
                "species": [
                    {
                        "element": "As",
                        "occu": 1
                    }
                ],
                "abc": [
                    0.64618163,
                    0.69569151,
                    0.69408223
                ],
                "xyz": [
                    0.39192175329500767,
                    5.806661832322474,
                    5.337600426408706
                ],
                "label": "As",
                "properties": {}
            },
            {
                "species": [
                    {
                        "element": "As",
                        "occu": 1
                    }
                ],
                "abc": [
                    0.64618163,
                    0.80430849,
                    0.19408223
                ],
                "xyz": [
                    2.5632097782950076,
                    6.713244797677526,
                    1.4926105714087048
                ],
                "label": "As",
                "properties": {}
            },
            {
                "species": [
                    {
                        "element": "As",
                        "occu": 1
                    }
                ],
                "abc": [
                    0.35381837,
                    0.19569151,
                    0.80591777
                ],
                "xyz": [
                    -1.6347807982950073,
                    1.6333596223224744,
                    6.197558188591295
                ],
                "label": "As",
                "properties": {}
            },
            {
                "species": [
                    {
                        "element": "O",
                        "occu": 1
                    }
                ],
                "abc": [
                    0.27960344,
                    0.35889598,
                    0.46569792
                ],
                "xyz": [
                    -0.5485374952815125,
                    2.9955627729882317,
                    3.581260414819535
                ],
                "label": "O",
                "properties": {}
            },
            {
                "species": [
                    {
                        "element": "O",
                        "occu": 1
                    }
                ],
                "abc": [
                    0.72039656,
                    0.64110402,
                    0.53430208
                ],
                "xyz": [
                    1.4769664752815128,
                    5.351041647011768,
                    4.108908345180465
                ],
                "label": "O",
                "properties": {}
            },
            {
                "species": [
                    {
                        "element": "O",
                        "occu": 1
                    }
                ],
                "abc": [
                    0.72039656,
                    0.85889598,
                    0.03430208
                ],
                "xyz": [
                    3.6482545002815128,
                    7.168864982988232,
                    0.2639184901804648
                ],
                "label": "O",
                "properties": {}
            },
            {
                "species": [
                    {
                        "element": "O",
                        "occu": 1
                    }
                ],
                "abc": [
                    0.27960344,
                    0.14110402,
                    0.96569792
                ],
                "xyz": [
                    -2.7198255202815123,
                    1.1777394370117684,
                    7.426250269819536
                ],
                "label": "O",
                "properties": {}
            },
            {
                "species": [
                    {
                        "element": "O",
                        "occu": 1
                    }
                ],
                "abc": [
                    0.21006572,
                    0.43616295,
                    0.13481709
                ],
                "xyz": [
                    0.5218040005858772,
                    3.640479606310239,
                    1.03678039958561
                ],
                "label": "O",
                "properties": {}
            },
            {
                "species": [
                    {
                        "element": "O",
                        "occu": 1
                    }
                ],
                "abc": [
                    0.78993428,
                    0.56383705,
                    0.86518291
                ],
                "xyz": [
                    0.40662497941412257,
                    4.706124813689761,
                    6.65338836041439
                ],
                "label": "O",
                "properties": {}
            },
            {
                "species": [
                    {
                        "element": "O",
                        "occu": 1
                    }
                ],
                "abc": [
                    0.78993428,
                    0.93616295,
                    0.36518291
                ],
                "xyz": [
                    2.577913004414123,
                    7.8137818163102395,
                    2.8083985054143903
                ],
                "label": "O",
                "properties": {}
            },
            {
                "species": [
                    {
                        "element": "O",
                        "occu": 1
                    }
                ],
                "abc": [
                    0.21006572,
                    0.06383705,
                    0.63481709
                ],
                "xyz": [
                    -1.6494840244141225,
                    0.5328226036897611,
                    4.88177025458561
                ],
                "label": "O",
                "properties": {}
            },
            {
                "species": [
                    {
                        "element": "O",
                        "occu": 1
                    }
                ],
                "abc": [
                    0.16834643,
                    0.12415625,
                    0.24340061
                ],
                "xyz": [
                    -0.16963078022884748,
                    1.036283105020625,
                    1.8717775781942145
                ],
                "label": "O",
                "properties": {}
            },
            {
                "species": [
                    {
                        "element": "O",
                        "occu": 1
                    }
                ],
                "abc": [
                    0.83165357,
                    0.87584375,
                    0.75659939
                ],
                "xyz": [
                    1.098059760228848,
                    7.310321314979375,
                    5.818391181805786
                ],
                "label": "O",
                "properties": {}
            },
            {
                "species": [
                    {
                        "element": "O",
                        "occu": 1
                    }
                ],
                "abc": [
                    0.83165357,
                    0.62415625,
                    0.25659939
                ],
                "xyz": [
                    3.269347785228848,
                    5.209585315020625,
                    1.9734013268057855
                ],
                "label": "O",
                "properties": {}
            },
            {
                "species": [
                    {
                        "element": "O",
                        "occu": 1
                    }
                ],
                "abc": [
                    0.16834643,
                    0.37584375,
                    0.74340061
                ],
                "xyz": [
                    -2.3409188052288474,
                    3.137019104979375,
                    5.716767433194215
                ],
                "label": "O",
                "properties": {}
            },
            {
                "species": [
                    {
                        "element": "O",
                        "occu": 1
                    }
                ],
                "abc": [
                    0.72006833,
                    0.30007646,
                    0.38201157
                ],
                "xyz": [
                    2.136569494668802,
                    2.504619507373953,
                    2.9377973512030318
                ],
                "label": "O",
                "properties": {}
            },
            {
                "species": [
                    {
                        "element": "O",
                        "occu": 1
                    }
                ],
                "abc": [
                    0.27993167,
                    0.69992354,
                    0.61798843
                ],
                "xyz": [
                    -1.2081405146688011,
                    5.841984912626047,
                    4.752371408796969
                ],
                "label": "O",
                "properties": {}
            },
            {
                "species": [
                    {
                        "element": "O",
                        "occu": 1
                    }
                ],
                "abc": [
                    0.27993167,
                    0.80007646,
                    0.11798843
                ],
                "xyz": [
                    0.9631475103311988,
                    6.677921717373954,
                    0.9073815537969689
                ],
                "label": "O",
                "properties": {}
            },
            {
                "species": [
                    {
                        "element": "O",
                        "occu": 1
                    }
                ],
                "abc": [
                    0.72006833,
                    0.19992354,
                    0.88201157
                ],
                "xyz": [
                    -0.03471853033119787,
                    1.668682702626047,
                    6.7827872062030306
                ],
                "label": "O",
                "properties": {}
            }
        ]
    },
    "spacegroup": {
        "source": "spglib",
        "symbol": "P2_1/c",
        "number": 14,
        "point_group": "2/m",
        "crystal_system": "monoclinic",
        "hall": "-P 2ybc"
    },
    "dielectric": {
        "epsilon_ionic": [
            [
                4.5490976,
                -1e-08,
                0.51020311
            ],
            [
                -1e-08,
                5.10244921,
                -2e-08
            ],
            [
                0.51020311,
                -2e-08,
                3.65940326
            ]
        ],
        "epsilon_ionic_avg": 4.4369833566666665,
        "epsilon_ionic_eig": [
            3.4273485034916753,
            4.781152356508323,
            5.102449210000002
        ],
        "epsilon_electronic": [
            [
                3.29820356,
                0.0,
                -0.01626484
            ],
            [
                0.0,
                3.0694659,
                0.0
            ],
            [
                -0.01626469,
                0.0,
                3.09920204
            ]
        ],
        "epsilon_electronic_avg": 3.1556238333333333,
        "epsilon_electronic_eig": [
            3.299524146058646,
            3.0978814539413544,
            3.0694659
        ]
    },
    "phonon": {
        "lowest_freq": -0.0617237285536425,
        "frequency": [
            -0.0617237285536425,
            -0.049411300522516265,
            -0.02470323648970864,
            2.388485768674687,
            2.6362907279231598,
            2.9055731006763446,
            2.96441132685354,
            2.971403003265357,
            2.9975772099325404,
            3.2172464316041482,
            3.5614322801198153,
            3.717657481735333,
            3.847754406367966,
            4.00113918715997,
            4.165768752965473,
            4.230924269056938,
            4.795658514531501,
            4.89376754715454,
            5.199124894512362,
            5.369371514680601,
            5.518997439457319,
            5.647196672129178,
            5.9315087174446015,
            5.984943069697884,
            6.165779640134204,
            6.463558112602407,
            6.81055474156459,
            6.829823312325281,
            6.903453095989764,
            7.266654225601477,
            7.532933116228942,
            7.757339726110068,
            7.757808957263658,
            8.133107697945686,
            8.273049121755307,
            8.453877867291254,
            8.76160701297737,
            8.779686370889902,
            8.876530656640007,
            8.876587856874732,
            9.77134037797902,
            10.065099859246219,
            10.307693484997765,
            10.504000722714464,
            10.62648691597347,
            10.820911714715715,
            11.171960105877142,
            11.675664609855856,
            12.458409810636168,
            12.798269820438817,
            12.936691794022538,
            12.94330163880596,
            13.12811703877418,
            13.367785739535051,
            13.677683354774418,
            13.82059356370294,
            14.323508950598095,
            14.46671437265946,
            14.503198259282874,
            15.275557849086464,
            15.317785943363024,
            15.905119698797304,
            22.647224044902394,
            22.727953065548803,
            23.019982995950315,
            23.627982837160246,
            23.827572363343986,
            23.989693588852738,
            24.468610290463758,
            24.78550986064094,
            24.82563169464759,
            24.91767215412122,
            25.36048821691829,
            25.47767941936978,
            25.649343057312716,
            25.8253383075468,
            25.877236525296535,
            26.50551072527156
        ]
    },
    "born_effective_charge": {
        "avg_abs_trace": 2.0470897435897437,
        "tensors": [
            [
                [
                    2.21687,
                    -0.19326,
                    0.23873
                ],
                [
                    0.06696,
                    2.42872,
                    0.36137
                ],
                [
                    -0.23108,
                    -0.38436,
                    2.18583
                ]
            ],
            [
                [
                    2.21687,
                    0.19326,
                    0.23873
                ],
                [
                    -0.06696,
                    2.42872,
                    -0.36137
                ],
                [
                    -0.23108,
                    0.38436,
                    2.18583
                ]
            ],
            [
                [
                    2.27087,
                    0.06567,
                    -0.15845
                ],
                [
                    -0.4087,
                    2.20548,
                    0.02313
                ],
                [
                    0.00755,
                    0.1496,
                    1.96799
                ]
            ],
            [
                [
                    2.27089,
                    0.06568,
                    -0.15843
                ],
                [
                    -0.40895,
                    2.20545,
                    0.02311
                ],
                [
                    0.0075,
                    0.14952,
                    1.96801
                ]
            ],
            [
                [
                    2.27089,
                    -0.06568,
                    -0.15843
                ],
                [
                    0.4087,
                    2.20548,
                    -0.02313
                ],
                [
                    0.0075,
                    -0.14952,
                    1.96801
                ]
            ],
            [
                [
                    2.27087,
                    -0.06567,
                    -0.15845
                ],
                [
                    0.40895,
                    2.20545,
                    -0.02311
                ],
                [
                    0.00755,
                    -0.1496,
                    1.96799
                ]
            ],
            [
                [
                    3.64205,
                    0.10219,
                    -0.01403
                ],
                [
                    -0.00783,
                    3.06042,
                    -0.26107
                ],
                [
                    -0.06148,
                    -0.11151,
                    3.39658
                ]
            ],
            [
                [
                    3.64213,
                    0.10217,
                    -0.01405
                ],
                [
                    -0.00789,
                    3.06032,
                    -0.26106
                ],
                [
                    -0.06157,
                    -0.11159,
                    3.39663
                ]
            ],
            [
                [
                    3.64213,
                    -0.10217,
                    -0.01405
                ],
                [
                    0.00783,
                    3.06042,
                    0.26107
                ],
                [
                    -0.06157,
                    0.11159,
                    3.39663
                ]
            ],
            [
                [
                    3.64205,
                    -0.10219,
                    -0.01403
                ],
                [
                    0.00789,
                    3.06032,
                    0.26106
                ],
                [
                    -0.06148,
                    0.11151,
                    3.39658
                ]
            ],
            [
                [
                    -1.95412,
                    0.039,
                    0.4205
                ],
                [
                    0.09317,
                    -1.43895,
                    -0.15829
                ],
                [
                    0.51031,
                    -0.25764,
                    -1.5684
                ]
            ],
            [
                [
                    -1.95422,
                    0.03902,
                    0.42054
                ],
                [
                    0.09325,
                    -1.43881,
                    -0.15831
                ],
                [
                    0.51036,
                    -0.25784,
                    -1.56848
                ]
            ],
            [
                [
                    -1.95422,
                    -0.03902,
                    0.42054
                ],
                [
                    -0.09317,
                    -1.43895,
                    0.15829
                ],
                [
                    0.51036,
                    0.25784,
                    -1.56848
                ]
            ],
            [
                [
                    -1.95412,
                    -0.039,
                    0.4205
                ],
                [
                    -0.09325,
                    -1.43881,
                    0.15831
                ],
                [
                    0.51031,
                    0.25764,
                    -1.5684
                ]
            ],
            [
                [
                    -1.08524,
                    0.1399,
                    -0.0338
                ],
                [
                    0.29466,
                    -1.92097,
                    0.51886
                ],
                [
                    -0.09024,
                    0.44291,
                    -2.20975
                ]
            ],
            [
                [
                    -1.08518,
                    0.13991,
                    -0.03398
                ],
                [
                    0.29476,
                    -1.92123,
                    0.51896
                ],
                [
                    -0.09027,
                    0.44296,
                    -2.20973
                ]
            ],
            [
                [
                    -1.08518,
                    -0.13991,
                    -0.03398
                ],
                [
                    -0.29466,
                    -1.92097,
                    -0.51886
                ],
                [
                    -0.09027,
                    -0.44296,
                    -2.20973
                ]
            ],
            [
                [
                    -1.08524,
                    -0.1399,
                    -0.0338
                ],
                [
                    -0.29476,
                    -1.92123,
                    -0.51896
                ],
                [
                    -0.09024,
                    -0.44291,
                    -2.20975
                ]
            ],
            [
                [
                    -1.5572,
                    -0.2833,
                    0.1592
                ],
                [
                    -0.42437,
                    -1.72048,
                    -0.33565
                ],
                [
                    0.23756,
                    -0.26731,
                    -1.48039
                ]
            ],
            [
                [
                    -1.55727,
                    -0.28338,
                    0.15918
                ],
                [
                    -0.42447,
                    -1.72037,
                    -0.3355
                ],
                [
                    0.23734,
                    -0.26737,
                    -1.48039
                ]
            ],
            [
                [
                    -1.55727,
                    0.28338,
                    0.15918
                ],
                [
                    0.42437,
                    -1.72048,
                    0.33565
                ],
                [
                    0.23734,
                    0.26737,
                    -1.48039
                ]
            ],
            [
                [
                    -1.5572,
                    0.2833,
                    0.1592
                ],
                [
                    0.42447,
                    -1.72037,
                    0.3355
                ],
                [
                    0.23756,
                    0.26731,
                    -1.48039
                ]
            ],
            [
                [
                    -2.42474,
                    0.17317,
                    -0.49271
                ],
                [
                    0.27772,
                    -1.39978,
                    0.04812
                ],
                [
                    -0.48793,
                    -0.05986,
                    -1.19892
                ]
            ],
            [
                [
                    -2.42485,
                    0.17324,
                    -0.49271
                ],
                [
                    0.27793,
                    -1.3998,
                    0.04815
                ],
                [
                    -0.48806,
                    -0.0597,
                    -1.19899
                ]
            ],
            [
                [
                    -2.42485,
                    -0.17324,
                    -0.49271
                ],
                [
                    -0.27772,
                    -1.39978,
                    -0.04812
                ],
                [
                    -0.48806,
                    0.0597,
                    -1.19899
                ]
            ],
            [
                [
                    -2.42474,
                    -0.17317,
                    -0.49271
                ],
                [
                    -0.27793,
                    -1.3998,
                    -0.04815
                ],
                [
                    -0.48793,
                    0.05986,
                    -1.19892
                ]
            ]
        ]
    },
    "band_gap": 3.0142,
    "is_direct": false,
    "formula": "MgZn2(AsO4)2"
}