{
    "mp_id": "mp-14324",
    "nelements": 4,
    "nsites": 26,
    "elements": [
        "Be",
        "K",
        "Na",
        "O"
    ],
    "structure": {
        "@module": "pymatgen.core.structure",
        "@class": "Structure",
        "charge": null,
        "lattice": {
            "matrix": [
                [
                    5.93191719,
                    0.0,
                    0.0
                ],
                [
                    0.0,
                    5.93191719,
                    0.0
                ],
                [
                    0.0,
                    0.0,
                    9.87854822
                ]
            ],
            "a": 5.93191719,
            "b": 5.93191719,
            "c": 9.87854822,
            "alpha": 90.0,
            "beta": 90.0,
            "gamma": 90.0,
            "volume": 347.6028137900449
        },
        "sites": [
            {
                "species": [
                    {
                        "element": "K",
                        "occu": 1
                    }
                ],
                "abc": [
                    0.31910591,
                    0.31910591,
                    0.0
                ],
                "xyz": [
                    1.8929098329595928,
                    1.8929098329595928,
                    0.0
                ],
                "label": "K",
                "properties": {}
            },
            {
                "species": [
                    {
                        "element": "K",
                        "occu": 1
                    }
                ],
                "abc": [
                    0.18089409,
                    0.81910591,
                    0.5
                ],
                "xyz": [
                    1.0730487620404072,
                    4.858868427959593,
                    4.93927411
                ],
                "label": "K",
                "properties": {}
            },
            {
                "species": [
                    {
                        "element": "K",
                        "occu": 1
                    }
                ],
                "abc": [
                    0.81910591,
                    0.18089409,
                    0.5
                ],
                "xyz": [
                    4.858868427959593,
                    1.0730487620404072,
                    4.93927411
                ],
                "label": "K",
                "properties": {}
            },
            {
                "species": [
                    {
                        "element": "K",
                        "occu": 1
                    }
                ],
                "abc": [
                    0.68089409,
                    0.68089409,
                    0.0
                ],
                "xyz": [
                    4.039007357040407,
                    4.039007357040407,
                    0.0
                ],
                "label": "K",
                "properties": {}
            },
            {
                "species": [
                    {
                        "element": "Na",
                        "occu": 1
                    }
                ],
                "abc": [
                    0.5,
                    0.0,
                    0.75
                ],
                "xyz": [
                    2.965958595,
                    0.0,
                    7.408911165000001
                ],
                "label": "Na",
                "properties": {}
            },
            {
                "species": [
                    {
                        "element": "Na",
                        "occu": 1
                    }
                ],
                "abc": [
                    0.5,
                    0.0,
                    0.25
                ],
                "xyz": [
                    2.965958595,
                    0.0,
                    2.469637055
                ],
                "label": "Na",
                "properties": {}
            },
            {
                "species": [
                    {
                        "element": "Na",
                        "occu": 1
                    }
                ],
                "abc": [
                    0.0,
                    0.5,
                    0.75
                ],
                "xyz": [
                    0.0,
                    2.965958595,
                    7.408911165000001
                ],
                "label": "Na",
                "properties": {}
            },
            {
                "species": [
                    {
                        "element": "Na",
                        "occu": 1
                    }
                ],
                "abc": [
                    0.0,
                    0.5,
                    0.25
                ],
                "xyz": [
                    0.0,
                    2.965958595,
                    2.469637055
                ],
                "label": "Na",
                "properties": {}
            },
            {
                "species": [
                    {
                        "element": "Na",
                        "occu": 1
                    }
                ],
                "abc": [
                    0.0,
                    0.0,
                    0.22542588
                ],
                "xyz": [
                    0.0,
                    0.0,
                    2.2268804256159336
                ],
                "label": "Na",
                "properties": {}
            },
            {
                "species": [
                    {
                        "element": "Na",
                        "occu": 1
                    }
                ],
                "abc": [
                    0.5,
                    0.5,
                    0.72542588
                ],
                "xyz": [
                    2.965958595,
                    2.965958595,
                    7.1661545356159335
                ],
                "label": "Na",
                "properties": {}
            },
            {
                "species": [
                    {
                        "element": "Na",
                        "occu": 1
                    }
                ],
                "abc": [
                    0.5,
                    0.5,
                    0.27457412
                ],
                "xyz": [
                    2.965958595,
                    2.965958595,
                    2.7123936843840664
                ],
                "label": "Na",
                "properties": {}
            },
            {
                "species": [
                    {
                        "element": "Na",
                        "occu": 1
                    }
                ],
                "abc": [
                    0.0,
                    0.0,
                    0.77457412
                ],
                "xyz": [
                    0.0,
                    0.0,
                    7.651667794384068
                ],
                "label": "Na",
                "properties": {}
            },
            {
                "species": [
                    {
                        "element": "Be",
                        "occu": 1
                    }
                ],
                "abc": [
                    0.68772176,
                    0.68772176,
                    0.5
                ],
                "xyz": [
                    4.079508530081054,
                    4.079508530081054,
                    4.93927411
                ],
                "label": "Be",
                "properties": {}
            },
            {
                "species": [
                    {
                        "element": "Be",
                        "occu": 1
                    }
                ],
                "abc": [
                    0.31227824,
                    0.31227824,
                    0.5
                ],
                "xyz": [
                    1.8524086599189455,
                    1.8524086599189455,
                    4.93927411
                ],
                "label": "Be",
                "properties": {}
            },
            {
                "species": [
                    {
                        "element": "Be",
                        "occu": 1
                    }
                ],
                "abc": [
                    0.81227824,
                    0.18772176,
                    0.0
                ],
                "xyz": [
                    4.818367254918946,
                    1.1135499350810543,
                    0.0
                ],
                "label": "Be",
                "properties": {}
            },
            {
                "species": [
                    {
                        "element": "Be",
                        "occu": 1
                    }
                ],
                "abc": [
                    0.18772176,
                    0.81227824,
                    0.0
                ],
                "xyz": [
                    1.1135499350810543,
                    4.818367254918946,
                    0.0
                ],
                "label": "Be",
                "properties": {}
            },
            {
                "species": [
                    {
                        "element": "O",
                        "occu": 1
                    }
                ],
                "abc": [
                    0.22587594,
                    0.22587594,
                    0.35991765
                ],
                "xyz": [
                    1.3398773712934087,
                    1.3398773712934087,
                    3.555463860754083
                ],
                "label": "O",
                "properties": {}
            },
            {
                "species": [
                    {
                        "element": "O",
                        "occu": 1
                    }
                ],
                "abc": [
                    0.27412406,
                    0.72587594,
                    0.85991765
                ],
                "xyz": [
                    1.6260812237065914,
                    4.305835966293409,
                    8.494737970754084
                ],
                "label": "O",
                "properties": {}
            },
            {
                "species": [
                    {
                        "element": "O",
                        "occu": 1
                    }
                ],
                "abc": [
                    0.77412406,
                    0.77412406,
                    0.64008235
                ],
                "xyz": [
                    4.592039818706591,
                    4.592039818706591,
                    6.323084359245918
                ],
                "label": "O",
                "properties": {}
            },
            {
                "species": [
                    {
                        "element": "O",
                        "occu": 1
                    }
                ],
                "abc": [
                    0.72587594,
                    0.27412406,
                    0.14008235
                ],
                "xyz": [
                    4.305835966293409,
                    1.6260812237065914,
                    1.383810249245917
                ],
                "label": "O",
                "properties": {}
            },
            {
                "species": [
                    {
                        "element": "O",
                        "occu": 1
                    }
                ],
                "abc": [
                    0.27412406,
                    0.72587594,
                    0.14008235
                ],
                "xyz": [
                    1.6260812237065914,
                    4.305835966293409,
                    1.383810249245917
                ],
                "label": "O",
                "properties": {}
            },
            {
                "species": [
                    {
                        "element": "O",
                        "occu": 1
                    }
                ],
                "abc": [
                    0.22587594,
                    0.22587594,
                    0.64008235
                ],
                "xyz": [
                    1.3398773712934087,
                    1.3398773712934087,
                    6.323084359245918
                ],
                "label": "O",
                "properties": {}
            },
            {
                "species": [
                    {
                        "element": "O",
                        "occu": 1
                    }
                ],
                "abc": [
                    0.77412406,
                    0.77412406,
                    0.35991765
                ],
                "xyz": [
                    4.592039818706591,
                    4.592039818706591,
                    3.555463860754083
                ],
                "label": "O",
                "properties": {}
            },
            {
                "species": [
                    {
                        "element": "O",
                        "occu": 1
                    }
                ],
                "abc": [
                    0.0,
                    0.0,
                    0.0
                ],
                "xyz": [
                    0.0,
                    0.0,
                    0.0
                ],
                "label": "O",
                "properties": {}
            },
            {
                "species": [
                    {
                        "element": "O",
                        "occu": 1
                    }
                ],
                "abc": [
                    0.72587594,
                    0.27412406,
                    0.85991765
                ],
                "xyz": [
                    4.305835966293409,
                    1.6260812237065914,
                    8.494737970754084
                ],
                "label": "O",
                "properties": {}
            },
            {
                "species": [
                    {
                        "element": "O",
                        "occu": 1
                    }
                ],
                "abc": [
                    0.5,
                    0.5,
                    0.5
                ],
                "xyz": [
                    2.965958595,
                    2.965958595,
                    4.93927411
                ],
                "label": "O",
                "properties": {}
            }
        ]
    },
    "spacegroup": {
        "source": "spglib",
        "symbol": "P4_2/mnm",
        "number": 136,
        "point_group": "4/mmm",
        "crystal_system": "tetragonal",
        "hall": "-P 4n 2n"
    },
    "dielectric": {
        "epsilon_ionic": [
            [
                4.12201007,
                0.0,
                0.0
            ],
            [
                0.0,
                4.12201046,
                0.0
            ],
            [
                0.0,
                0.0,
                4.76580575
            ]
        ],
        "epsilon_ionic_avg": 4.33660876,
        "epsilon_ionic_eig": [
            4.12201007,
            4.12201046,
            4.76580575
        ],
        "epsilon_electronic": [
            [
                2.78282657,
                -0.0,
                0.0
            ],
            [
                0.0,
                2.78282657,
                0.0
            ],
            [
                0.0,
                0.0,
                2.7893322
            ]
        ],
        "epsilon_electronic_avg": 2.7849951133333337,
        "epsilon_electronic_eig": [
            2.78282657,
            2.78282657,
            2.7893322
        ]
    },
    "phonon": {
        "lowest_freq": -0.17610011098554926,
        "frequency": [
            -0.17610011098554926,
            -0.17610011098554926,
            -0.09909020838820469,
            2.3498069578094007,
            2.3498069578094007,
            3.0695521226014257,
            3.0695521226014257,
            3.1813993467289183,
            3.277820479860539,
            3.7663648295143424,
            3.7663648295143424,
            3.983581111547534,
            4.001558415036727,
            4.238003913209158,
            4.238003913209158,
            4.353091473733665,
            4.353091473733665,
            4.579478607749622,
            4.579478607749622,
            5.093338260831151,
            5.099021706013461,
            5.262483990851784,
            5.4402957446199105,
            5.962836129250298,
            6.030035837610339,
            6.37873930042979,
            6.4107104106740564,
            6.4107104106740564,
            6.508574040525451,
            6.530738758212188,
            6.530738758212188,
            6.576208386121095,
            6.833924083929552,
            6.833924083929552,
            6.8878443967888066,
            6.8878443967888066,
            7.133185146129007,
            7.133185146129007,
            7.174629100254535,
            7.174629100254535,
            7.206540131977118,
            7.476038501344704,
            7.476038501344704,
            7.501995293403684,
            7.795403526041764,
            7.848853568787823,
            7.848853568787823,
            8.265560021727046,
            8.328203023494433,
            8.328203023494433,
            8.40929003416793,
            8.572812851009479,
            9.4466212038486,
            9.705201665294457,
            10.62090383240361,
            10.72991567174441,
            11.483103002159483,
            11.483103002159483,
            12.999126993513578,
            12.999126993513578,
            14.690837440424021,
            14.922234105432766,
            16.532401285193554,
            16.86454240682284,
            18.078602424081886,
            18.078602424081886,
            18.248624519380094,
            18.258989609855274,
            20.613001453223024,
            20.613001453223024,
            26.3489321225972,
            26.73607755959386,
            27.150400997082635,
            27.497698772664606,
            27.497698772664606,
            27.518714556133247,
            27.518714556133247,
            29.36323964956012
        ]
    },
    "born_effective_charge": {
        "avg_abs_trace": 1.3390769230769228,
        "tensors": [
            [
                [
                    1.17443,
                    0.07652,
                    0.0
                ],
                [
                    0.07652,
                    1.17443,
                    0.0
                ],
                [
                    -5e-05,
                    -5e-05,
                    0.98504
                ]
            ],
            [
                [
                    1.17458,
                    -0.07655,
                    0.0
                ],
                [
                    -0.07652,
                    1.17443,
                    0.0
                ],
                [
                    5e-05,
                    -5e-05,
                    0.98504
                ]
            ],
            [
                [
                    1.17443,
                    -0.07652,
                    0.0
                ],
                [
                    -0.07655,
                    1.17458,
                    0.0
                ],
                [
                    -5e-05,
                    5e-05,
                    0.98504
                ]
            ],
            [
                [
                    1.17458,
                    0.07655,
                    0.0
                ],
                [
                    0.07655,
                    1.17458,
                    0.0
                ],
                [
                    5e-05,
                    5e-05,
                    0.98504
                ]
            ],
            [
                [
                    0.97858,
                    0.01898,
                    -1e-05
                ],
                [
                    -0.01898,
                    0.97858,
                    1e-05
                ],
                [
                    0.0,
                    -0.0,
                    0.98536
                ]
            ],
            [
                [
                    0.97858,
                    0.01898,
                    1e-05
                ],
                [
                    -0.01898,
                    0.97858,
                    -1e-05
                ],
                [
                    0.0,
                    -0.0,
                    0.98536
                ]
            ],
            [
                [
                    0.97858,
                    -0.01898,
                    1e-05
                ],
                [
                    0.01898,
                    0.97858,
                    -1e-05
                ],
                [
                    0.0,
                    -0.0,
                    0.98536
                ]
            ],
            [
                [
                    0.97858,
                    -0.01898,
                    -1e-05
                ],
                [
                    0.01898,
                    0.97858,
                    1e-05
                ],
                [
                    0.0,
                    -0.0,
                    0.98536
                ]
            ],
            [
                [
                    0.89009,
                    -0.02581,
                    -0.0
                ],
                [
                    -0.02581,
                    0.89009,
                    -0.0
                ],
                [
                    0.0,
                    -0.0,
                    0.99644
                ]
            ],
            [
                [
                    0.89009,
                    0.02581,
                    -0.0
                ],
                [
                    0.02581,
                    0.89009,
                    -0.0
                ],
                [
                    0.0,
                    -0.0,
                    0.99644
                ]
            ],
            [
                [
                    0.89009,
                    0.02581,
                    0.0
                ],
                [
                    0.02581,
                    0.89009,
                    0.0
                ],
                [
                    0.0,
                    -0.0,
                    0.99642
                ]
            ],
            [
                [
                    0.89009,
                    -0.02581,
                    0.0
                ],
                [
                    -0.02581,
                    0.89009,
                    0.0
                ],
                [
                    0.0,
                    -0.0,
                    0.99642
                ]
            ],
            [
                [
                    1.13397,
                    0.75211,
                    0.0
                ],
                [
                    0.75211,
                    1.13397,
                    0.0
                ],
                [
                    -5e-05,
                    -5e-05,
                    1.73481
                ]
            ],
            [
                [
                    1.13404,
                    0.75197,
                    0.0
                ],
                [
                    0.75197,
                    1.13404,
                    0.0
                ],
                [
                    5e-05,
                    5e-05,
                    1.73481
                ]
            ],
            [
                [
                    1.13404,
                    -0.75197,
                    0.0
                ],
                [
                    -0.75211,
                    1.13397,
                    0.0
                ],
                [
                    5e-05,
                    -5e-05,
                    1.73481
                ]
            ],
            [
                [
                    1.13397,
                    -0.75211,
                    0.0
                ],
                [
                    -0.75197,
                    1.13404,
                    0.0
                ],
                [
                    -5e-05,
                    5e-05,
                    1.73481
                ]
            ],
            [
                [
                    -1.59639,
                    -0.16103,
                    -0.14052
                ],
                [
                    -0.16103,
                    -1.59639,
                    -0.14052
                ],
                [
                    -0.13079,
                    -0.13079,
                    -2.03636
                ]
            ],
            [
                [
                    -1.59641,
                    0.16114,
                    0.14059
                ],
                [
                    0.16103,
                    -1.59639,
                    -0.14052
                ],
                [
                    0.13079,
                    -0.13079,
                    -2.03636
                ]
            ],
            [
                [
                    -1.59641,
                    -0.16114,
                    -0.14059
                ],
                [
                    -0.16114,
                    -1.59641,
                    -0.14059
                ],
                [
                    -0.13077,
                    -0.13077,
                    -2.03644
                ]
            ],
            [
                [
                    -1.59639,
                    0.16103,
                    0.14052
                ],
                [
                    0.16114,
                    -1.59641,
                    -0.14059
                ],
                [
                    0.13077,
                    -0.13077,
                    -2.03644
                ]
            ],
            [
                [
                    -1.59641,
                    0.16114,
                    -0.14059
                ],
                [
                    0.16103,
                    -1.59639,
                    0.14052
                ],
                [
                    -0.13077,
                    0.13077,
                    -2.03644
                ]
            ],
            [
                [
                    -1.59639,
                    -0.16103,
                    0.14052
                ],
                [
                    -0.16103,
                    -1.59639,
                    0.14052
                ],
                [
                    0.13077,
                    0.13077,
                    -2.03644
                ]
            ],
            [
                [
                    -1.59641,
                    -0.16114,
                    0.14059
                ],
                [
                    -0.16114,
                    -1.59641,
                    0.14059
                ],
                [
                    0.13079,
                    0.13079,
                    -2.03636
                ]
            ],
            [
                [
                    -1.96876,
                    0.75998,
                    0.0
                ],
                [
                    0.75998,
                    -1.96876,
                    0.0
                ],
                [
                    0.0,
                    -0.0,
                    -1.25768
                ]
            ],
            [
                [
                    -1.59639,
                    0.16103,
                    -0.14052
                ],
                [
                    0.16114,
                    -1.59641,
                    0.14059
                ],
                [
                    -0.13079,
                    0.13079,
                    -2.03636
                ]
            ],
            [
                [
                    -1.96876,
                    -0.75998,
                    0.0
                ],
                [
                    -0.75998,
                    -1.96876,
                    0.0
                ],
                [
                    0.0,
                    -0.0,
                    -1.25768
                ]
            ]
        ]
    },
    "band_gap": 2.5282,
    "is_direct": false,
    "formula": "K2Na4Be2O5"
}