{
    "mp_id": "mp-19034",
    "nelements": 3,
    "nsites": 26,
    "elements": [
        "Mg",
        "O",
        "V"
    ],
    "structure": {
        "@module": "pymatgen.core.structure",
        "@class": "Structure",
        "charge": null,
        "lattice": {
            "matrix": [
                [
                    3.02198093,
                    -5.72947286,
                    0.0
                ],
                [
                    3.02198093,
                    5.72947286,
                    0.0
                ],
                [
                    0.0,
                    0.0,
                    8.31598268
                ]
            ],
            "a": 6.4775943061263295,
            "b": 6.4775943061263295,
            "c": 8.31598268,
            "alpha": 90.0,
            "beta": 90.0,
            "gamma": 124.38165075660226,
            "volume": 287.97179786083285
        },
        "sites": [
            {
                "species": [
                    {
                        "element": "Mg",
                        "occu": 1
                    }
                ],
                "abc": [
                    0.0,
                    0.0,
                    0.5
                ],
                "xyz": [
                    0.0,
                    0.0,
                    4.15799134
                ],
                "label": "Mg",
                "properties": {}
            },
            {
                "species": [
                    {
                        "element": "Mg",
                        "occu": 1
                    }
                ],
                "abc": [
                    0.5,
                    0.5,
                    0.0
                ],
                "xyz": [
                    3.02198093,
                    0.0,
                    0.0
                ],
                "label": "Mg",
                "properties": {}
            },
            {
                "species": [
                    {
                        "element": "Mg",
                        "occu": 1
                    }
                ],
                "abc": [
                    0.61407217,
                    0.88592783,
                    0.25
                ],
                "xyz": [
                    4.532971395,
                    1.5575896258073874,
                    2.07899567
                ],
                "label": "Mg",
                "properties": {}
            },
            {
                "species": [
                    {
                        "element": "Mg",
                        "occu": 1
                    }
                ],
                "abc": [
                    0.88592783,
                    0.61407217,
                    0.75
                ],
                "xyz": [
                    4.532971395,
                    -1.5575896258073874,
                    6.23698701
                ],
                "label": "Mg",
                "properties": {}
            },
            {
                "species": [
                    {
                        "element": "Mg",
                        "occu": 1
                    }
                ],
                "abc": [
                    0.11407217,
                    0.38592783,
                    0.25
                ],
                "xyz": [
                    1.510990465,
                    1.5575896258073874,
                    2.07899567
                ],
                "label": "Mg",
                "properties": {}
            },
            {
                "species": [
                    {
                        "element": "Mg",
                        "occu": 1
                    }
                ],
                "abc": [
                    0.38592783,
                    0.11407217,
                    0.75
                ],
                "xyz": [
                    1.510990465,
                    -1.5575896258073874,
                    6.23698701
                ],
                "label": "Mg",
                "properties": {}
            },
            {
                "species": [
                    {
                        "element": "V",
                        "occu": 1
                    }
                ],
                "abc": [
                    0.61959154,
                    0.38040846,
                    0.37998326
                ],
                "xyz": [
                    3.02198093,
                    -1.370392965431209,
                    3.1599342088499367
                ],
                "label": "V",
                "properties": {}
            },
            {
                "species": [
                    {
                        "element": "V",
                        "occu": 1
                    }
                ],
                "abc": [
                    0.38040846,
                    0.61959154,
                    0.62001674
                ],
                "xyz": [
                    3.02198093,
                    1.370392965431209,
                    5.156048471150062
                ],
                "label": "V",
                "properties": {}
            },
            {
                "species": [
                    {
                        "element": "V",
                        "occu": 1
                    }
                ],
                "abc": [
                    0.88040846,
                    0.11959154,
                    0.87998326
                ],
                "xyz": [
                    3.02198093,
                    -4.35907989456879,
                    7.317925548849937
                ],
                "label": "V",
                "properties": {}
            },
            {
                "species": [
                    {
                        "element": "V",
                        "occu": 1
                    }
                ],
                "abc": [
                    0.11959154,
                    0.88040846,
                    0.12001674
                ],
                "xyz": [
                    3.02198093,
                    4.35907989456879,
                    0.9980571311500631
                ],
                "label": "V",
                "properties": {}
            },
            {
                "species": [
                    {
                        "element": "O",
                        "occu": 1
                    }
                ],
                "abc": [
                    0.3479251,
                    0.1126183,
                    0.00019214
                ],
                "xyz": [
                    1.3917533722373618,
                    -1.3481839243734477,
                    0.0015978329121351998
                ],
                "label": "O",
                "properties": {}
            },
            {
                "species": [
                    {
                        "element": "O",
                        "occu": 1
                    }
                ],
                "abc": [
                    0.1126183,
                    0.3479251,
                    0.99980786
                ],
                "xyz": [
                    1.3917533722373618,
                    1.3481839243734477,
                    8.314384847087863
                ],
                "label": "O",
                "properties": {}
            },
            {
                "species": [
                    {
                        "element": "O",
                        "occu": 1
                    }
                ],
                "abc": [
                    0.1520749,
                    0.3873817,
                    0.50019214
                ],
                "xyz": [
                    1.630227557762638,
                    1.3481839243734477,
                    4.159589172912135
                ],
                "label": "O",
                "properties": {}
            },
            {
                "species": [
                    {
                        "element": "O",
                        "occu": 1
                    }
                ],
                "abc": [
                    0.3873817,
                    0.1520749,
                    0.49980786
                ],
                "xyz": [
                    1.630227557762638,
                    -1.3481839243734477,
                    4.156393507087865
                ],
                "label": "O",
                "properties": {}
            },
            {
                "species": [
                    {
                        "element": "O",
                        "occu": 1
                    }
                ],
                "abc": [
                    0.6520749,
                    0.8873817,
                    0.99980786
                ],
                "xyz": [
                    4.652208487762637,
                    1.3481839243734477,
                    8.314384847087863
                ],
                "label": "O",
                "properties": {}
            },
            {
                "species": [
                    {
                        "element": "O",
                        "occu": 1
                    }
                ],
                "abc": [
                    0.8873817,
                    0.6520749,
                    0.00019214
                ],
                "xyz": [
                    4.652208487762637,
                    -1.3481839243734477,
                    0.0015978329121351998
                ],
                "label": "O",
                "properties": {}
            },
            {
                "species": [
                    {
                        "element": "O",
                        "occu": 1
                    }
                ],
                "abc": [
                    0.8479251,
                    0.6126183,
                    0.49980786
                ],
                "xyz": [
                    4.413734302237362,
                    -1.3481839243734481,
                    4.156393507087865
                ],
                "label": "O",
                "properties": {}
            },
            {
                "species": [
                    {
                        "element": "O",
                        "occu": 1
                    }
                ],
                "abc": [
                    0.6126183,
                    0.8479251,
                    0.50019214
                ],
                "xyz": [
                    4.413734302237362,
                    1.3481839243734481,
                    4.159589172912135
                ],
                "label": "O",
                "properties": {}
            },
            {
                "species": [
                    {
                        "element": "O",
                        "occu": 1
                    }
                ],
                "abc": [
                    0.49605519,
                    0.50394481,
                    0.24505333
                ],
                "xyz": [
                    3.02198093,
                    0.045203363665713425,
                    2.0378592479563244
                ],
                "label": "O",
                "properties": {}
            },
            {
                "species": [
                    {
                        "element": "O",
                        "occu": 1
                    }
                ],
                "abc": [
                    0.50394481,
                    0.49605519,
                    0.75494667
                ],
                "xyz": [
                    3.02198093,
                    -0.045203363665713425,
                    6.278123432043675
                ],
                "label": "O",
                "properties": {}
            },
            {
                "species": [
                    {
                        "element": "O",
                        "occu": 1
                    }
                ],
                "abc": [
                    0.74832387,
                    0.25167613,
                    0.27279486
                ],
                "xyz": [
                    3.02198093,
                    -2.845529747310336,
                    2.2685573309530245
                ],
                "label": "O",
                "properties": {}
            },
            {
                "species": [
                    {
                        "element": "O",
                        "occu": 1
                    }
                ],
                "abc": [
                    0.25167613,
                    0.74832387,
                    0.72720514
                ],
                "xyz": [
                    3.02198093,
                    2.845529747310336,
                    6.047425349046975
                ],
                "label": "O",
                "properties": {}
            },
            {
                "species": [
                    {
                        "element": "O",
                        "occu": 1
                    }
                ],
                "abc": [
                    0.75167613,
                    0.24832387,
                    0.77279486
                ],
                "xyz": [
                    3.02198093,
                    -2.8839431126896637,
                    6.426548670953024
                ],
                "label": "O",
                "properties": {}
            },
            {
                "species": [
                    {
                        "element": "O",
                        "occu": 1
                    }
                ],
                "abc": [
                    0.24832387,
                    0.75167613,
                    0.22720514
                ],
                "xyz": [
                    3.02198093,
                    2.8839431126896637,
                    1.889434009046975
                ],
                "label": "O",
                "properties": {}
            },
            {
                "species": [
                    {
                        "element": "O",
                        "occu": 1
                    }
                ],
                "abc": [
                    0.99605519,
                    0.00394481,
                    0.25494667
                ],
                "xyz": [
                    3.02198093,
                    -5.684269496334286,
                    2.1201320920436753
                ],
                "label": "O",
                "properties": {}
            },
            {
                "species": [
                    {
                        "element": "O",
                        "occu": 1
                    }
                ],
                "abc": [
                    0.00394481,
                    0.99605519,
                    0.74505333
                ],
                "xyz": [
                    3.02198093,
                    5.684269496334286,
                    6.195850587956324
                ],
                "label": "O",
                "properties": {}
            }
        ]
    },
    "spacegroup": {
        "source": "spglib",
        "symbol": "Cmce",
        "number": 64,
        "point_group": "mmm",
        "crystal_system": "orthorhombic",
        "hall": "-C 2bc 2"
    },
    "dielectric": {
        "epsilon_ionic": [
            [
                5.28577787,
                -1e-08,
                1e-08
            ],
            [
                -1e-08,
                5.95359286,
                0.0
            ],
            [
                1e-08,
                0.0,
                5.14556807
            ]
        ],
        "epsilon_ionic_avg": 5.461646266666668,
        "epsilon_ionic_eig": [
            5.285777870000004,
            5.953592860000001,
            5.14556807
        ],
        "epsilon_electronic": [
            [
                3.72278175,
                0.0,
                0.0
            ],
            [
                0.0,
                3.86293808,
                0.0
            ],
            [
                0.0,
                0.0,
                3.82149576
            ]
        ],
        "epsilon_electronic_avg": 3.8024051966666668,
        "epsilon_electronic_eig": [
            3.72278175,
            3.86293808,
            3.82149576
        ]
    },
    "phonon": {
        "lowest_freq": -0.14816544598724407,
        "frequency": [
            -0.14816544598724407,
            -0.10357144563970269,
            -0.02061397011475589,
            4.006099888598252,
            4.34267999341054,
            4.614292855005244,
            4.706907213312065,
            4.994097559932687,
            5.160196575546722,
            5.417228475433837,
            5.557961324228951,
            5.858673254256673,
            5.987694139552931,
            6.032868150327614,
            6.05120579418652,
            6.140802576292644,
            6.195152442412759,
            6.482936494112618,
            6.784826592194956,
            7.2211987812774945,
            7.335889425155628,
            7.565304374074945,
            8.043608862410451,
            8.045900855620713,
            8.075295976080616,
            8.344940425995006,
            8.360988538921251,
            8.386910897906851,
            8.71191648457177,
            8.974960549458702,
            9.131741300390676,
            9.311902919987725,
            9.330349858574435,
            9.661853127086198,
            9.689076326867413,
            9.695769539610167,
            9.740389977880017,
            9.977997161725957,
            10.326794962863083,
            10.605448711146437,
            10.695568744738415,
            10.78436299668412,
            10.91370886547012,
            10.917218897789239,
            11.014596598908058,
            11.477667612833805,
            11.709245692960797,
            11.798720234600857,
            11.99777533331675,
            12.209902828593236,
            12.3089104754188,
            12.447427698664256,
            12.54442794468791,
            13.04354369183124,
            13.392628692083154,
            13.40128272375063,
            13.532155228112797,
            13.549644829900155,
            14.117849021890757,
            14.23293567728848,
            14.275429164689152,
            14.445824171951015,
            20.66355996213551,
            20.668013338967736,
            20.965224636374543,
            21.84586557092687,
            24.21667723538886,
            24.630480093582154,
            24.655266557740916,
            24.68158162297149,
            24.83418966720724,
            24.839414097485765,
            25.121864299185713,
            25.190153544237184,
            25.190369757034187,
            25.26411294260794,
            25.86204543394609,
            27.08608580246751
        ]
    },
    "born_effective_charge": {
        "avg_abs_trace": 2.1855246153846157,
        "tensors": [
            [
                [
                    3.24752,
                    0.0,
                    0.0
                ],
                [
                    -0.0,
                    1.8957,
                    0.51152
                ],
                [
                    -0.0,
                    0.71929,
                    2.46534
                ]
            ],
            [
                [
                    3.24752,
                    0.0,
                    0.0
                ],
                [
                    -0.0,
                    1.8957,
                    -0.51152
                ],
                [
                    -0.0,
                    -0.71929,
                    2.46534
                ]
            ],
            [
                [
                    2.01805,
                    1e-05,
                    -0.71185
                ],
                [
                    -0.0,
                    2.93571,
                    0.0
                ],
                [
                    -0.00122,
                    1e-05,
                    2.50801
                ]
            ],
            [
                [
                    2.01805,
                    -1e-05,
                    0.71185
                ],
                [
                    -0.0,
                    2.93571,
                    0.0
                ],
                [
                    0.00122,
                    -1e-05,
                    2.50801
                ]
            ],
            [
                [
                    2.01805,
                    1e-05,
                    0.71185
                ],
                [
                    -0.0,
                    2.93571,
                    0.0
                ],
                [
                    0.00122,
                    1e-05,
                    2.50801
                ]
            ],
            [
                [
                    2.01805,
                    -1e-05,
                    -0.71185
                ],
                [
                    -0.0,
                    2.93571,
                    0.0
                ],
                [
                    -0.00122,
                    -1e-05,
                    2.50801
                ]
            ],
            [
                [
                    3.22479,
                    0.00012,
                    0.00022
                ],
                [
                    -0.0,
                    3.39598,
                    0.0764
                ],
                [
                    -0.0,
                    0.02898,
                    3.42196
                ]
            ],
            [
                [
                    3.22479,
                    -0.00012,
                    -0.00022
                ],
                [
                    -0.0,
                    3.39617,
                    0.07655
                ],
                [
                    -0.0,
                    0.02881,
                    3.42195
                ]
            ],
            [
                [
                    3.22479,
                    -0.00012,
                    0.00022
                ],
                [
                    -0.0,
                    3.39617,
                    -0.07655
                ],
                [
                    -0.0,
                    -0.02898,
                    3.42196
                ]
            ],
            [
                [
                    3.22479,
                    0.00012,
                    -0.00022
                ],
                [
                    -0.0,
                    3.39598,
                    -0.0764
                ],
                [
                    -0.0,
                    -0.02881,
                    3.42195
                ]
            ],
            [
                [
                    -2.24155,
                    -0.08587,
                    1.03774
                ],
                [
                    -0.14405,
                    -0.97011,
                    0.01493
                ],
                [
                    0.94888,
                    0.15476,
                    -1.77979
                ]
            ],
            [
                [
                    -2.24155,
                    0.08587,
                    -1.03774
                ],
                [
                    0.1442,
                    -0.97002,
                    0.015
                ],
                [
                    -0.94904,
                    0.15494,
                    -1.77985
                ]
            ],
            [
                [
                    -2.24143,
                    -0.08597,
                    -1.03763
                ],
                [
                    -0.1442,
                    -0.97002,
                    -0.015
                ],
                [
                    -0.94888,
                    -0.15476,
                    -1.77979
                ]
            ],
            [
                [
                    -2.24143,
                    0.08597,
                    1.03763
                ],
                [
                    0.14405,
                    -0.97011,
                    -0.01493
                ],
                [
                    0.94904,
                    -0.15494,
                    -1.77985
                ]
            ],
            [
                [
                    -2.24143,
                    -0.08597,
                    1.03763
                ],
                [
                    -0.1442,
                    -0.97002,
                    0.015
                ],
                [
                    0.94904,
                    0.15494,
                    -1.77985
                ]
            ],
            [
                [
                    -2.24143,
                    0.08597,
                    -1.03763
                ],
                [
                    0.14405,
                    -0.97011,
                    0.01493
                ],
                [
                    -0.94888,
                    0.15476,
                    -1.77979
                ]
            ],
            [
                [
                    -2.24155,
                    -0.08587,
                    -1.03774
                ],
                [
                    -0.14405,
                    -0.97011,
                    -0.01493
                ],
                [
                    -0.94904,
                    -0.15494,
                    -1.77985
                ]
            ],
            [
                [
                    -2.24155,
                    0.08587,
                    1.03774
                ],
                [
                    0.1442,
                    -0.97002,
                    -0.015
                ],
                [
                    0.94888,
                    -0.15476,
                    -1.77979
                ]
            ],
            [
                [
                    -1.28878,
                    -2e-05,
                    -4e-05
                ],
                [
                    -0.0,
                    -2.51993,
                    1.00062
                ],
                [
                    -0.0,
                    1.22066,
                    -2.1767
                ]
            ],
            [
                [
                    -1.28878,
                    2e-05,
                    4e-05
                ],
                [
                    -0.0,
                    -2.51978,
                    1.00054
                ],
                [
                    -0.0,
                    1.22096,
                    -2.17671
                ]
            ],
            [
                [
                    -1.09483,
                    -0.00015,
                    -0.00022
                ],
                [
                    -0.0,
                    -2.81948,
                    -0.89716
                ],
                [
                    -0.0,
                    -1.11282,
                    -1.42637
                ]
            ],
            [
                [
                    -1.09483,
                    0.00015,
                    0.00022
                ],
                [
                    -0.0,
                    -2.81984,
                    -0.89734
                ],
                [
                    -0.0,
                    -1.11276,
                    -1.42619
                ]
            ],
            [
                [
                    -1.09483,
                    0.00015,
                    -0.00022
                ],
                [
                    -0.0,
                    -2.81984,
                    0.89734
                ],
                [
                    -0.0,
                    1.11282,
                    -1.42637
                ]
            ],
            [
                [
                    -1.09483,
                    -0.00015,
                    0.00022
                ],
                [
                    -0.0,
                    -2.81948,
                    0.89716
                ],
                [
                    -0.0,
                    1.11276,
                    -1.42619
                ]
            ],
            [
                [
                    -1.28878,
                    -2e-05,
                    4e-05
                ],
                [
                    -0.0,
                    -2.51993,
                    -1.00062
                ],
                [
                    -0.0,
                    -1.22096,
                    -2.17671
                ]
            ],
            [
                [
                    -1.28878,
                    2e-05,
                    -4e-05
                ],
                [
                    -0.0,
                    -2.51978,
                    -1.00054
                ],
                [
                    -0.0,
                    -1.22066,
                    -2.1767
                ]
            ]
        ]
    },
    "band_gap": 3.3978,
    "is_direct": false,
    "formula": "Mg3V2O8"
}