{
    "mp_id": "mp-1214228",
    "nelements": 4,
    "nsites": 28,
    "elements": [
        "Ba",
        "O",
        "Si",
        "Zr"
    ],
    "structure": {
        "@module": "pymatgen.core.structure",
        "@class": "Structure",
        "charge": null,
        "lattice": {
            "matrix": [
                [
                    6.79404198,
                    -0.0,
                    0.0
                ],
                [
                    -3.39702149,
                    5.88381351,
                    0.0
                ],
                [
                    0.0,
                    0.0,
                    10.11313033
                ]
            ],
            "a": 6.79404198,
            "b": 6.794042715790088,
            "c": 10.11313033,
            "alpha": 90.0,
            "beta": 90.0,
            "gamma": 120.0000012864202,
            "volume": 404.271130806705
        },
        "sites": [
            {
                "species": [
                    {
                        "element": "Ba",
                        "occu": 1
                    }
                ],
                "abc": [
                    0.0,
                    0.0,
                    0.0
                ],
                "xyz": [
                    0.0,
                    0.0,
                    0.0
                ],
                "label": "Ba",
                "properties": {}
            },
            {
                "species": [
                    {
                        "element": "Ba",
                        "occu": 1
                    }
                ],
                "abc": [
                    0.0,
                    0.0,
                    0.5
                ],
                "xyz": [
                    0.0,
                    0.0,
                    5.056565165
                ],
                "label": "Ba",
                "properties": {}
            },
            {
                "species": [
                    {
                        "element": "Zr",
                        "occu": 1
                    }
                ],
                "abc": [
                    0.666667,
                    0.333333,
                    0.0
                ],
                "xyz": [
                    3.3970242203544903,
                    1.9612692087288301,
                    0.0
                ],
                "label": "Zr",
                "properties": {}
            },
            {
                "species": [
                    {
                        "element": "Zr",
                        "occu": 1
                    }
                ],
                "abc": [
                    0.666667,
                    0.333333,
                    0.5
                ],
                "xyz": [
                    3.3970242203544903,
                    1.9612692087288301,
                    5.056565165
                ],
                "label": "Zr",
                "properties": {}
            },
            {
                "species": [
                    {
                        "element": "Si",
                        "occu": 1
                    }
                ],
                "abc": [
                    0.38822246,
                    0.44202452,
                    0.25
                ],
                "xyz": [
                    1.136032897271936,
                    2.600789842527265,
                    2.5282825825
                ],
                "label": "Si",
                "properties": {}
            },
            {
                "species": [
                    {
                        "element": "Si",
                        "occu": 1
                    }
                ],
                "abc": [
                    0.55797548,
                    0.94619694,
                    0.25
                ],
                "xyz": [
                    0.5766574959784094,
                    5.56724633869266,
                    2.5282825825
                ],
                "label": "Si",
                "properties": {}
            },
            {
                "species": [
                    {
                        "element": "Si",
                        "occu": 1
                    }
                ],
                "abc": [
                    0.38822246,
                    0.94619694,
                    0.75
                ],
                "xyz": [
                    -0.5766516481333701,
                    5.56724633869266,
                    7.5848477475000005
                ],
                "label": "Si",
                "properties": {}
            },
            {
                "species": [
                    {
                        "element": "Si",
                        "occu": 1
                    }
                ],
                "abc": [
                    0.05380306,
                    0.61177754,
                    0.25
                ],
                "xyz": [
                    -1.7126812021868756,
                    3.5995849549665655,
                    2.5282825825
                ],
                "label": "Si",
                "properties": {}
            },
            {
                "species": [
                    {
                        "element": "Si",
                        "occu": 1
                    }
                ],
                "abc": [
                    0.55797548,
                    0.61177754,
                    0.75
                ],
                "xyz": [
                    1.712687384451316,
                    3.5995849549665655,
                    7.5848477475000005
                ],
                "label": "Si",
                "properties": {}
            },
            {
                "species": [
                    {
                        "element": "Si",
                        "occu": 1
                    }
                ],
                "abc": [
                    0.05380306,
                    0.44202452,
                    0.75
                ],
                "xyz": [
                    -1.136026545254476,
                    2.600789842527265,
                    7.5848477475000005
                ],
                "label": "Si",
                "properties": {}
            },
            {
                "species": [
                    {
                        "element": "O",
                        "occu": 1
                    }
                ],
                "abc": [
                    0.91417336,
                    0.59647955,
                    0.11672826
                ],
                "xyz": [
                    4.184678335142124,
                    3.5095744347287208,
                    1.180488106574126
                ],
                "label": "O",
                "properties": {}
            },
            {
                "species": [
                    {
                        "element": "O",
                        "occu": 1
                    }
                ],
                "abc": [
                    0.40352045,
                    0.31769381,
                    0.11672826
                ],
                "xyz": [
                    1.6623221772785137,
                    1.8692511313213733,
                    1.180488106574126
                ],
                "label": "O",
                "properties": {}
            },
            {
                "species": [
                    {
                        "element": "O",
                        "occu": 1
                    }
                ],
                "abc": [
                    0.91417336,
                    0.59647955,
                    0.38327174
                ],
                "xyz": [
                    4.184678335142124,
                    3.5095744347287208,
                    3.876077058425875
                ],
                "label": "O",
                "properties": {}
            },
            {
                "species": [
                    {
                        "element": "O",
                        "occu": 1
                    }
                ],
                "abc": [
                    0.91417336,
                    0.31769381,
                    0.61672826
                ],
                "xyz": [
                    5.131719485027676,
                    1.8692511313213733,
                    6.237053271574126
                ],
                "label": "O",
                "properties": {}
            },
            {
                "species": [
                    {
                        "element": "O",
                        "occu": 1
                    }
                ],
                "abc": [
                    0.68230619,
                    0.08582664,
                    0.11672826
                ],
                "xyz": [
                    4.344061957579363,
                    0.5049879439499064,
                    1.180488106574126
                ],
                "label": "O",
                "properties": {}
            },
            {
                "species": [
                    {
                        "element": "O",
                        "occu": 1
                    }
                ],
                "abc": [
                    0.40352045,
                    0.31769381,
                    0.38327174
                ],
                "xyz": [
                    1.6623221772785137,
                    1.8692511313213733,
                    3.876077058425875
                ],
                "label": "O",
                "properties": {}
            },
            {
                "species": [
                    {
                        "element": "O",
                        "occu": 1
                    }
                ],
                "abc": [
                    0.40352045,
                    0.08582664,
                    0.61672826
                ],
                "xyz": [
                    2.4499799365939974,
                    0.5049879439499064,
                    6.237053271574126
                ],
                "label": "O",
                "properties": {}
            },
            {
                "species": [
                    {
                        "element": "O",
                        "occu": 1
                    }
                ],
                "abc": [
                    0.91417336,
                    0.31769381,
                    0.88327174
                ],
                "xyz": [
                    5.131719485027676,
                    1.8692511313213733,
                    8.932642223425875
                ],
                "label": "O",
                "properties": {}
            },
            {
                "species": [
                    {
                        "element": "O",
                        "occu": 1
                    }
                ],
                "abc": [
                    0.68230619,
                    0.08582664,
                    0.38327174
                ],
                "xyz": [
                    4.344061957579363,
                    0.5049879439499064,
                    3.876077058425875
                ],
                "label": "O",
                "properties": {}
            },
            {
                "species": [
                    {
                        "element": "O",
                        "occu": 1
                    }
                ],
                "abc": [
                    0.40352045,
                    0.08582664,
                    0.88327174
                ],
                "xyz": [
                    2.4499799365939974,
                    0.5049879439499064,
                    8.932642223425875
                ],
                "label": "O",
                "properties": {}
            },
            {
                "species": [
                    {
                        "element": "O",
                        "occu": 1
                    }
                ],
                "abc": [
                    0.68230619,
                    0.59647955,
                    0.61672826
                ],
                "xyz": [
                    2.609363048378327,
                    3.5095744347287208,
                    6.237053271574126
                ],
                "label": "O",
                "properties": {}
            },
            {
                "species": [
                    {
                        "element": "O",
                        "occu": 1
                    }
                ],
                "abc": [
                    0.68230619,
                    0.59647955,
                    0.88327174
                ],
                "xyz": [
                    2.609363048378327,
                    3.5095744347287208,
                    8.932642223425875
                ],
                "label": "O",
                "properties": {}
            },
            {
                "species": [
                    {
                        "element": "O",
                        "occu": 1
                    }
                ],
                "abc": [
                    0.13495407,
                    0.4201988,
                    0.25
                ],
                "xyz": [
                    -0.5105407367203533,
                    2.472371376325788,
                    2.5282825825
                ],
                "label": "O",
                "properties": {}
            },
            {
                "species": [
                    {
                        "element": "O",
                        "occu": 1
                    }
                ],
                "abc": [
                    0.5798012,
                    0.71475527,
                    0.25
                ],
                "xyz": [
                    1.511154680573624,
                    4.205486713969698,
                    2.5282825825
                ],
                "label": "O",
                "properties": {}
            },
            {
                "species": [
                    {
                        "element": "O",
                        "occu": 1
                    }
                ],
                "abc": [
                    0.13495407,
                    0.71475527,
                    0.75
                ],
                "xyz": [
                    -1.5111553953288936,
                    4.205486713969698,
                    7.5848477475000005
                ],
                "label": "O",
                "properties": {}
            },
            {
                "species": [
                    {
                        "element": "O",
                        "occu": 1
                    }
                ],
                "abc": [
                    0.28524473,
                    0.86504593,
                    0.25
                ],
                "xyz": [
                    -1.0006149438532703,
                    5.0897689297045146,
                    2.5282825825
                ],
                "label": "O",
                "properties": {}
            },
            {
                "species": [
                    {
                        "element": "O",
                        "occu": 1
                    }
                ],
                "abc": [
                    0.5798012,
                    0.86504593,
                    0.75
                ],
                "xyz": [
                    1.0006140788073408,
                    5.0897689297045146,
                    7.5848477475000005
                ],
                "label": "O",
                "properties": {}
            },
            {
                "species": [
                    {
                        "element": "O",
                        "occu": 1
                    }
                ],
                "abc": [
                    0.28524473,
                    0.4201988,
                    0.75
                ],
                "xyz": [
                    0.5105403165215534,
                    2.472371376325788,
                    7.5848477475000005
                ],
                "label": "O",
                "properties": {}
            }
        ]
    },
    "spacegroup": {
        "source": "spglib",
        "symbol": "P-6c2",
        "number": 188,
        "point_group": "-6m2",
        "crystal_system": "hexagonal",
        "hall": "P -6c 2"
    },
    "dielectric": {
        "epsilon_ionic": [
            [
                5.46307729,
                -9.004e-05,
                0.0
            ],
            [
                -9.004e-05,
                5.46304561,
                -0.0
            ],
            [
                0.0,
                -0.0,
                5.93845938
            ]
        ],
        "epsilon_ionic_avg": 5.621527426666667,
        "epsilon_ionic_eig": [
            5.463152872684275,
            5.462970027315725,
            5.93845938
        ],
        "epsilon_electronic": [
            [
                2.97457774,
                0.0,
                0.0
            ],
            [
                0.0,
                2.97457777,
                -0.0
            ],
            [
                -0.0,
                0.0,
                2.99643765
            ]
        ],
        "epsilon_electronic_avg": 2.9818643866666665,
        "epsilon_electronic_eig": [
            2.97457774,
            2.97457777,
            2.99643765
        ]
    },
    "phonon": {
        "lowest_freq": -0.09666897300386174,
        "frequency": [
            -0.09666897300386174,
            -0.02842727606316434,
            -0.028427275891216713,
            1.824539047490776,
            1.925369484971619,
            2.2050428657594345,
            2.2050428768431254,
            3.3095330397939233,
            3.309533058255752,
            3.6546852820970064,
            3.654685285440661,
            4.020582389039806,
            4.02058239511853,
            4.408334659510634,
            4.525500555725841,
            4.525500580028139,
            5.027377300687476,
            5.067324477819937,
            5.2312490504387545,
            5.2312490504387545,
            5.696671254645397,
            5.696671254645397,
            6.263052520617423,
            6.263052520617423,
            6.867874404898324,
            6.867874440484316,
            6.958270219927942,
            7.399473706577849,
            7.773441847107503,
            8.199060709838095,
            8.19906072474225,
            8.233160895192551,
            8.936286559989522,
            9.048849937803274,
            9.048849937803274,
            9.529449190724053,
            10.286114819857968,
            10.55189406724029,
            10.55189409040202,
            10.810247378558241,
            10.810247389862338,
            10.885916550297734,
            10.885916572748775,
            11.095263654756137,
            11.095263665769853,
            12.188265983634325,
            12.822192241155037,
            12.82219226021575,
            13.45781830620585,
            13.45781830620585,
            13.901012567387664,
            14.616022714867693,
            14.616022731589078,
            15.055861647606376,
            15.1445448451933,
            15.14454486940005,
            15.908173270281793,
            16.304117709209724,
            16.3561937471516,
            16.80914687925728,
            18.510980969773826,
            18.688176523562735,
            21.90838888741197,
            21.90838888741197,
            21.973660335462757,
            21.973660335462757,
            27.1247356931883,
            27.1247356931883,
            27.46507589255877,
            27.46507593705166,
            27.546354394372614,
            27.96473503684966,
            27.96473503684966,
            28.225555602929575,
            28.225555602929575,
            28.80656354924364,
            28.89893456615529,
            29.563149557177343,
            30.229668305334087,
            30.229668345757975,
            30.317598803556496,
            30.31759884386314,
            30.39919198625853,
            32.67650843342755
        ]
    },
    "born_effective_charge": {
        "avg_abs_trace": 2.5112461904761902,
        "tensors": [
            [
                [
                    2.95983,
                    -6e-05,
                    0.0008
                ],
                [
                    -0.0,
                    2.95992,
                    -0.0
                ],
                [
                    -0.0,
                    0.0,
                    2.23257
                ]
            ],
            [
                [
                    2.95983,
                    -6e-05,
                    -0.0008
                ],
                [
                    -0.0,
                    2.95992,
                    -0.0
                ],
                [
                    -0.0,
                    0.0,
                    2.23257
                ]
            ],
            [
                [
                    4.66038,
                    -0.00012,
                    0.00191
                ],
                [
                    -0.0,
                    4.66028,
                    -0.0
                ],
                [
                    -0.0,
                    0.0,
                    5.22839
                ]
            ],
            [
                [
                    4.66038,
                    -0.00012,
                    -0.00191
                ],
                [
                    -0.0,
                    4.66028,
                    -0.0
                ],
                [
                    -0.0,
                    0.0,
                    5.22839
                ]
            ],
            [
                [
                    3.35649,
                    -0.70414,
                    0.0
                ],
                [
                    -0.3222,
                    3.22144,
                    -0.0
                ],
                [
                    -1e-05,
                    1e-05,
                    3.43309
                ]
            ],
            [
                [
                    2.81059,
                    0.00476,
                    0.0
                ],
                [
                    0.38994,
                    3.76812,
                    -0.0
                ],
                [
                    -1e-05,
                    -1e-05,
                    3.43309
                ]
            ],
            [
                [
                    2.80934,
                    -0.006,
                    0.0
                ],
                [
                    -0.38994,
                    3.76812,
                    -0.0
                ],
                [
                    1e-05,
                    -1e-05,
                    3.43309
                ]
            ],
            [
                [
                    3.70201,
                    0.12405,
                    0.0
                ],
                [
                    0.50733,
                    2.87805,
                    -0.0
                ],
                [
                    1e-05,
                    0.0,
                    3.43309
                ]
            ],
            [
                [
                    3.70222,
                    -0.12386,
                    0.0
                ],
                [
                    -0.50733,
                    2.87805,
                    -0.0
                ],
                [
                    -1e-05,
                    0.0,
                    3.43309
                ]
            ],
            [
                [
                    3.35516,
                    0.70519,
                    0.0
                ],
                [
                    0.3222,
                    3.22144,
                    -0.0
                ],
                [
                    1e-05,
                    1e-05,
                    3.43309
                ]
            ],
            [
                [
                    -1.66923,
                    -0.33255,
                    -0.75038
                ],
                [
                    -0.38821,
                    -2.04172,
                    -0.42032
                ],
                [
                    -0.81507,
                    -0.53051,
                    -2.38521
                ]
            ],
            [
                [
                    -2.26034,
                    0.04645,
                    0.7385
                ],
                [
                    -0.00903,
                    -1.45008,
                    -0.43934
                ],
                [
                    0.86697,
                    -0.44062,
                    -2.38521
                ]
            ],
            [
                [
                    -1.66923,
                    -0.33255,
                    0.75038
                ],
                [
                    -0.38821,
                    -2.04172,
                    0.42032
                ],
                [
                    0.81504,
                    0.53051,
                    -2.3852
                ]
            ],
            [
                [
                    -2.26024,
                    -0.04651,
                    -0.73839
                ],
                [
                    0.00903,
                    -1.45008,
                    -0.43934
                ],
                [
                    -0.86697,
                    -0.44062,
                    -2.38521
                ]
            ],
            [
                [
                    -1.63644,
                    0.36983,
                    0.01043
                ],
                [
                    0.3137,
                    -2.0742,
                    0.85957
                ],
                [
                    -0.0519,
                    0.97113,
                    -2.38521
                ]
            ],
            [
                [
                    -2.26034,
                    0.04645,
                    -0.7385
                ],
                [
                    -0.00903,
                    -1.45008,
                    0.43934
                ],
                [
                    -0.86695,
                    0.4406,
                    -2.3852
                ]
            ],
            [
                [
                    -1.63661,
                    -0.36968,
                    -0.01079
                ],
                [
                    -0.3137,
                    -2.0742,
                    0.85957
                ],
                [
                    0.0519,
                    0.97113,
                    -2.38521
                ]
            ],
            [
                [
                    -2.26024,
                    -0.04651,
                    0.73839
                ],
                [
                    0.00903,
                    -1.45008,
                    0.43934
                ],
                [
                    0.86695,
                    0.4406,
                    -2.3852
                ]
            ],
            [
                [
                    -1.63644,
                    0.36983,
                    -0.01043
                ],
                [
                    0.3137,
                    -2.0742,
                    -0.85957
                ],
                [
                    0.05191,
                    -0.9711,
                    -2.3852
                ]
            ],
            [
                [
                    -1.63661,
                    -0.36968,
                    0.01079
                ],
                [
                    -0.3137,
                    -2.0742,
                    -0.85957
                ],
                [
                    -0.05191,
                    -0.9711,
                    -2.3852
                ]
            ],
            [
                [
                    -1.66946,
                    0.33263,
                    0.75061
                ],
                [
                    0.38821,
                    -2.04172,
                    -0.42032
                ],
                [
                    0.81507,
                    -0.53051,
                    -2.38521
                ]
            ],
            [
                [
                    -1.66946,
                    0.33263,
                    -0.75061
                ],
                [
                    0.38821,
                    -2.04172,
                    0.42032
                ],
                [
                    -0.81504,
                    0.53051,
                    -2.3852
                ]
            ],
            [
                [
                    -2.793,
                    0.50811,
                    0.0
                ],
                [
                    0.34425,
                    -1.44432,
                    -0.0
                ],
                [
                    -0.0,
                    -1e-05,
                    -1.14968
                ]
            ],
            [
                [
                    -1.41313,
                    0.45271,
                    0.0
                ],
                [
                    0.28884,
                    -2.82475,
                    -0.0
                ],
                [
                    1e-05,
                    0.0,
                    -1.14968
                ]
            ],
            [
                [
                    -1.41177,
                    -0.45296,
                    0.0
                ],
                [
                    -0.28884,
                    -2.82475,
                    -0.0
                ],
                [
                    -1e-05,
                    0.0,
                    -1.14968
                ]
            ],
            [
                [
                    -2.15123,
                    -0.71458,
                    0.0
                ],
                [
                    -0.87885,
                    -2.08673,
                    -0.0
                ],
                [
                    -1e-05,
                    1e-05,
                    -1.14968
                ]
            ],
            [
                [
                    -2.15007,
                    0.71505,
                    0.0
                ],
                [
                    0.87885,
                    -2.08673,
                    -0.0
                ],
                [
                    1e-05,
                    1e-05,
                    -1.14968
                ]
            ],
            [
                [
                    -2.79239,
                    -0.5083,
                    0.0
                ],
                [
                    -0.34425,
                    -1.44432,
                    -0.0
                ],
                [
                    0.0,
                    -1e-05,
                    -1.14968
                ]
            ]
        ]
    },
    "band_gap": 4.7725,
    "is_direct": false,
    "formula": "BaZr(SiO3)3"
}