{
    "mp_id": "mp-19163",
    "nelements": 3,
    "nsites": 12,
    "elements": [
        "O",
        "Sr",
        "W"
    ],
    "structure": {
        "@module": "pymatgen.core.structure",
        "@class": "Structure",
        "charge": null,
        "lattice": {
            "matrix": [
                [
                    -2.70754338,
                    2.70754332,
                    5.926205
                ],
                [
                    2.70754338,
                    -2.70754332,
                    5.926205
                ],
                [
                    2.70754332,
                    2.70754338,
                    -5.926205
                ]
            ],
            "a": 7.055599739659518,
            "b": 7.055599739659518,
            "c": 7.055599739659518,
            "alpha": 134.86843588730002,
            "beta": 134.86843588730002,
            "gamma": 65.73468925778862,
            "volume": 173.7750809260447
        },
        "sites": [
            {
                "species": [
                    {
                        "element": "Sr",
                        "occu": 1
                    }
                ],
                "abc": [
                    0.75,
                    0.25,
                    0.5
                ],
                "xyz": [
                    -2.999999981767587e-08,
                    2.7075433500000003,
                    2.9631025
                ],
                "label": "Sr",
                "properties": {}
            },
            {
                "species": [
                    {
                        "element": "Sr",
                        "occu": 1
                    }
                ],
                "abc": [
                    0.0,
                    0.0,
                    0.0
                ],
                "xyz": [
                    0.0,
                    0.0,
                    0.0
                ],
                "label": "Sr",
                "properties": {}
            },
            {
                "species": [
                    {
                        "element": "W",
                        "occu": 1
                    }
                ],
                "abc": [
                    0.25,
                    0.75,
                    0.5
                ],
                "xyz": [
                    2.70754335,
                    2.999999981767587e-08,
                    2.9631025
                ],
                "label": "W",
                "properties": {}
            },
            {
                "species": [
                    {
                        "element": "W",
                        "occu": 1
                    }
                ],
                "abc": [
                    0.5,
                    0.5,
                    0.0
                ],
                "xyz": [
                    0.0,
                    0.0,
                    5.926205
                ],
                "label": "W",
                "properties": {}
            },
            {
                "species": [
                    {
                        "element": "O",
                        "occu": 1
                    }
                ],
                "abc": [
                    0.4388945,
                    0.81965748,
                    0.09125938
                ],
                "xyz": [
                    1.2780210105544143,
                    -0.7838435328203894,
                    6.917615242583001
                ],
                "label": "O",
                "properties": {}
            },
            {
                "species": [
                    {
                        "element": "O",
                        "occu": 1
                    }
                ],
                "abc": [
                    0.56965748,
                    0.9783981,
                    0.88076198
                ],
                "xyz": [
                    3.4913841752770693,
                    1.2780183330110342,
                    3.9545186687880003
                ],
                "label": "O",
                "properties": {}
            },
            {
                "species": [
                    {
                        "element": "O",
                        "occu": 1
                    }
                ],
                "abc": [
                    0.09763512,
                    0.6888945,
                    0.11923802
                ],
                "xyz": [
                    1.9237025247229307,
                    -1.278018273011034,
                    3.9545068163780006
                ],
                "label": "O",
                "properties": {}
            },
            {
                "species": [
                    {
                        "element": "O",
                        "occu": 1
                    }
                ],
                "abc": [
                    0.7283981,
                    0.34763512,
                    0.90874062
                ],
                "xyz": [
                    1.4295223094455858,
                    3.4913869128203894,
                    0.9914102425830009
                ],
                "label": "O",
                "properties": {}
            },
            {
                "species": [
                    {
                        "element": "O",
                        "occu": 1
                    }
                ],
                "abc": [
                    0.0216019,
                    0.90236488,
                    0.59125938
                ],
                "xyz": [
                    3.985564360554414,
                    -0.7838435028203892,
                    1.9716922574170002
                ],
                "label": "O",
                "properties": {}
            },
            {
                "species": [
                    {
                        "element": "O",
                        "occu": 1
                    }
                ],
                "abc": [
                    0.65236488,
                    0.5611055,
                    0.38076198
                ],
                "xyz": [
                    0.7838408252770692,
                    1.2780183030110341,
                    4.934800683622001
                ],
                "label": "O",
                "properties": {}
            },
            {
                "species": [
                    {
                        "element": "O",
                        "occu": 1
                    }
                ],
                "abc": [
                    0.18034252,
                    0.2716019,
                    0.61923802
                ],
                "xyz": [
                    1.9237024947229309,
                    1.429525076988966,
                    -0.9914161687879997
                ],
                "label": "O",
                "properties": {}
            },
            {
                "species": [
                    {
                        "element": "O",
                        "occu": 1
                    }
                ],
                "abc": [
                    0.3111055,
                    0.43034252,
                    0.40874062
                ],
                "xyz": [
                    1.4295223394455863,
                    0.7838435628203891,
                    1.9716922574170002
                ],
                "label": "O",
                "properties": {}
            }
        ]
    },
    "spacegroup": {
        "source": "spglib",
        "symbol": "I4_1/a",
        "number": 88,
        "point_group": "4/m",
        "crystal_system": "tetragonal",
        "hall": "I 4bw -1bw"
    },
    "dielectric": {
        "epsilon_ionic": [
            [
                6.72337892,
                -0.00023989,
                -0.0
            ],
            [
                -0.00023989,
                6.72323409,
                -0.0
            ],
            [
                -0.0,
                -0.0,
                4.71282447
            ]
        ],
        "epsilon_ionic_avg": 6.053145826666667,
        "epsilon_ionic_eig": [
            6.723557086612105,
            6.7230559233878955,
            4.71282447
        ],
        "epsilon_electronic": [
            [
                3.61276014,
                6.1e-07,
                -0.0
            ],
            [
                -6.1e-07,
                3.61276014,
                0.0
            ],
            [
                0.0,
                0.0,
                3.66935861
            ]
        ],
        "epsilon_electronic_avg": 3.6316262966666666,
        "epsilon_electronic_eig": [
            3.61276014,
            3.61276014,
            3.66935861
        ]
    },
    "phonon": {
        "lowest_freq": -0.032196743947166026,
        "frequency": [
            -0.032196743947166026,
            -0.014162541350568322,
            -0.014162541350568322,
            1.822551320177366,
            2.9517673067761403,
            2.9517673067761403,
            3.6592556549265143,
            3.6592556549265143,
            3.9230995925884553,
            3.9230995925884553,
            4.168706228794322,
            4.425023788604602,
            4.425023788604602,
            4.823889141958979,
            5.711739133288617,
            6.85089553490656,
            6.859522257956754,
            7.0168293508396244,
            7.0168293508396244,
            8.67663691354388,
            8.67663691354388,
            9.557076541795924,
            9.591129417914175,
            10.64162416607893,
            10.862019118367131,
            10.862019118367131,
            11.83498358182389,
            11.960663826085193,
            22.70668796135275,
            22.801341662510772,
            22.801341662510772,
            22.91223055873023,
            22.91223055873023,
            23.93748500560385,
            26.045206169964654,
            26.116365837304784
        ]
    },
    "born_effective_charge": {
        "avg_abs_trace": 2.398422222222222,
        "tensors": [
            [
                [
                    2.93519,
                    0.14649,
                    0.00015
                ],
                [
                    -0.14659,
                    2.93519,
                    -0.0001
                ],
                [
                    -0.0,
                    0.0,
                    2.71623
                ]
            ],
            [
                [
                    2.93519,
                    0.14649,
                    -0.00015
                ],
                [
                    -0.14659,
                    2.93519,
                    0.0001
                ],
                [
                    -0.0,
                    0.0,
                    2.71623
                ]
            ],
            [
                [
                    4.20029,
                    -0.21087,
                    4e-05
                ],
                [
                    0.21077,
                    4.20025,
                    -2e-05
                ],
                [
                    -0.0,
                    0.0,
                    4.59866
                ]
            ],
            [
                [
                    4.20029,
                    -0.21087,
                    -4e-05
                ],
                [
                    0.21077,
                    4.20025,
                    2e-05
                ],
                [
                    -0.0,
                    0.0,
                    4.59866
                ]
            ],
            [
                [
                    -2.05902,
                    0.72436,
                    -0.76087
                ],
                [
                    0.69187,
                    -1.50862,
                    0.58511
                ],
                [
                    -0.85699,
                    0.47646,
                    -1.82876
                ]
            ],
            [
                [
                    -1.50869,
                    -0.69214,
                    -0.58491
                ],
                [
                    -0.72414,
                    -2.05886,
                    -0.76083
                ],
                [
                    -0.47646,
                    -0.85699,
                    -1.82876
                ]
            ],
            [
                [
                    -1.50882,
                    -0.69196,
                    0.58524
                ],
                [
                    -0.72428,
                    -2.0591,
                    0.76099
                ],
                [
                    0.47646,
                    0.85699,
                    -1.82876
                ]
            ],
            [
                [
                    -2.05894,
                    0.72412,
                    0.76094
                ],
                [
                    0.69238,
                    -1.50886,
                    -0.58503
                ],
                [
                    0.85699,
                    -0.47646,
                    -1.82876
                ]
            ],
            [
                [
                    -2.05902,
                    0.72436,
                    0.76087
                ],
                [
                    0.69187,
                    -1.50862,
                    -0.58511
                ],
                [
                    0.85693,
                    -0.47648,
                    -1.82868
                ]
            ],
            [
                [
                    -1.50869,
                    -0.69214,
                    0.58491
                ],
                [
                    -0.72414,
                    -2.05886,
                    0.76083
                ],
                [
                    0.47648,
                    0.85693,
                    -1.82868
                ]
            ],
            [
                [
                    -1.50882,
                    -0.69196,
                    -0.58524
                ],
                [
                    -0.72428,
                    -2.0591,
                    -0.76099
                ],
                [
                    -0.47648,
                    -0.85693,
                    -1.82868
                ]
            ],
            [
                [
                    -2.05894,
                    0.72412,
                    -0.76094
                ],
                [
                    0.69238,
                    -1.50886,
                    0.58503
                ],
                [
                    -0.85693,
                    0.47648,
                    -1.82868
                ]
            ]
        ]
    },
    "band_gap": 4.5847999999999995,
    "is_direct": true,
    "formula": "SrWO4"
}