{
    "mp_id": "mp-1265",
    "nelements": 2,
    "nsites": 2,
    "elements": [
        "Mg",
        "O"
    ],
    "structure": {
        "@module": "pymatgen.core.structure",
        "@class": "Structure",
        "charge": null,
        "lattice": {
            "matrix": [
                [
                    0.0,
                    2.104811,
                    2.104811
                ],
                [
                    2.104811,
                    0.0,
                    2.104811
                ],
                [
                    2.104811,
                    2.104811,
                    0.0
                ]
            ],
            "a": 2.976652262432077,
            "b": 2.976652262432077,
            "c": 2.976652262432077,
            "alpha": 60.00000000000001,
            "beta": 60.00000000000001,
            "gamma": 60.00000000000001,
            "volume": 18.649590918792732
        },
        "sites": [
            {
                "species": [
                    {
                        "element": "Mg",
                        "occu": 1
                    }
                ],
                "abc": [
                    0.0,
                    0.0,
                    0.0
                ],
                "xyz": [
                    0.0,
                    0.0,
                    0.0
                ],
                "label": "Mg",
                "properties": {}
            },
            {
                "species": [
                    {
                        "element": "O",
                        "occu": 1
                    }
                ],
                "abc": [
                    0.5,
                    0.5,
                    0.5
                ],
                "xyz": [
                    2.104811,
                    2.104811,
                    2.104811
                ],
                "label": "O",
                "properties": {}
            }
        ]
    },
    "spacegroup": {
        "source": "spglib",
        "symbol": "Fm-3m",
        "number": 225,
        "point_group": "m-3m",
        "crystal_system": "cubic",
        "hall": "-F 4 2 3"
    },
    "dielectric": {
        "epsilon_ionic": [
            [
                6.81065538,
                0.0,
                0.0
            ],
            [
                0.0,
                6.81061053,
                -0.0
            ],
            [
                -0.0,
                -0.0,
                6.81021791
            ]
        ],
        "epsilon_ionic_avg": 6.8104946066666665,
        "epsilon_ionic_eig": [
            6.81065538,
            6.81061053,
            6.81021791
        ],
        "epsilon_electronic": [
            [
                3.15725977,
                0.0,
                -0.0
            ],
            [
                0.0,
                3.15725977,
                -0.0
            ],
            [
                0.0,
                0.0,
                3.15725977
            ]
        ],
        "epsilon_electronic_avg": 3.15725977,
        "epsilon_electronic_eig": [
            3.15725977,
            3.15725977,
            3.15725977
        ]
    },
    "phonon": {
        "lowest_freq": -0.003856957796473123,
        "frequency": [
            -0.003856957796473123,
            -0.003856957796473123,
            -0.0038569577933048214,
            11.786597882164104,
            11.786597882164104,
            11.786597882164104
        ]
    },
    "born_effective_charge": {
        "avg_abs_trace": 1.9619,
        "tensors": [
            [
                [
                    1.96192,
                    0.0,
                    0.0
                ],
                [
                    0.0,
                    1.96192,
                    -0.0
                ],
                [
                    -0.0,
                    -0.0,
                    1.96186
                ]
            ],
            [
                [
                    -1.96192,
                    0.0,
                    0.0
                ],
                [
                    0.0,
                    -1.96192,
                    0.0
                ],
                [
                    0.0,
                    0.0,
                    -1.96186
                ]
            ]
        ]
    },
    "band_gap": 4.66,
    "is_direct": true,
    "formula": "MgO"
}