{
    "mp_id": "mp-1191459",
    "nelements": 4,
    "nsites": 22,
    "elements": [
        "B",
        "K",
        "O",
        "Zn"
    ],
    "structure": {
        "@module": "pymatgen.core.structure",
        "@class": "Structure",
        "charge": null,
        "lattice": {
            "matrix": [
                [
                    6.84648796,
                    -0.00243189,
                    -0.0012094
                ],
                [
                    2.52018117,
                    6.38033543,
                    -0.00566102
                ],
                [
                    2.05909495,
                    2.55513889,
                    6.22496766
                ]
            ],
            "a": 6.846488498724168,
            "b": 6.8600310040176415,
            "c": 7.036961640392238,
            "alpha": 63.60996786042647,
            "beta": 73.00273205010919,
            "gamma": 68.46672945258531,
            "volume": 272.0698889126671
        },
        "sites": [
            {
                "species": [
                    {
                        "element": "K",
                        "occu": 1
                    }
                ],
                "abc": [
                    0.74237263,
                    0.70628947,
                    0.41671189
                ],
                "xyz": [
                    7.720672044295771,
                    5.569315116766154,
                    2.589121894513296
                ],
                "label": "K",
                "properties": {}
            },
            {
                "species": [
                    {
                        "element": "K",
                        "occu": 1
                    }
                ],
                "abc": [
                    0.25762737,
                    0.29371053,
                    0.58328811
                ],
                "xyz": [
                    3.7050920357042303,
                    3.3637273132338468,
                    3.6289753454867038
                ],
                "label": "K",
                "properties": {}
            },
            {
                "species": [
                    {
                        "element": "Zn",
                        "occu": 1
                    }
                ],
                "abc": [
                    0.33327379,
                    0.64904463,
                    0.87112434
                ],
                "xyz": [
                    5.711192774950268,
                    6.36615564240266,
                    5.418643528385896
                ],
                "label": "Zn",
                "properties": {}
            },
            {
                "species": [
                    {
                        "element": "Zn",
                        "occu": 1
                    }
                ],
                "abc": [
                    0.66672621,
                    0.35095537,
                    0.12887566
                ],
                "xyz": [
                    5.714571305049731,
                    2.5668867875973396,
                    0.7994537116141043
                ],
                "label": "Zn",
                "properties": {}
            },
            {
                "species": [
                    {
                        "element": "B",
                        "occu": 1
                    }
                ],
                "abc": [
                    0.9062589,
                    0.00350701,
                    0.90356883
                ],
                "xyz": [
                    8.074062962888254,
                    2.3289158355248416,
                    5.623570862566628
                ],
                "label": "B",
                "properties": {}
            },
            {
                "species": [
                    {
                        "element": "B",
                        "occu": 1
                    }
                ],
                "abc": [
                    0.0937411,
                    0.99649299,
                    0.09643117
                ],
                "xyz": [
                    3.351701117111746,
                    6.604126594475158,
                    0.5945263774333723
                ],
                "label": "B",
                "properties": {}
            },
            {
                "species": [
                    {
                        "element": "B",
                        "occu": 1
                    }
                ],
                "abc": [
                    0.7537518,
                    0.17723928,
                    0.56370014
                ],
                "xyz": [
                    6.767939831156978,
                    2.5693451663192333,
                    3.507100198901687
                ],
                "label": "B",
                "properties": {}
            },
            {
                "species": [
                    {
                        "element": "B",
                        "occu": 1
                    }
                ],
                "abc": [
                    0.2462482,
                    0.82276072,
                    0.43629986
                ],
                "xyz": [
                    4.6578242488430215,
                    6.363697263680766,
                    2.710997041098313
                ],
                "label": "B",
                "properties": {}
            },
            {
                "species": [
                    {
                        "element": "B",
                        "occu": 1
                    }
                ],
                "abc": [
                    0.6982237,
                    0.81637742,
                    0.83792779
                ],
                "xyz": [
                    8.563172037787494,
                    7.34808565708495,
                    5.210607433520322
                ],
                "label": "B",
                "properties": {}
            },
            {
                "species": [
                    {
                        "element": "B",
                        "occu": 1
                    }
                ],
                "abc": [
                    0.3017763,
                    0.18362258,
                    0.16207221
                ],
                "xyz": [
                    2.862592042212506,
                    1.584956772915049,
                    1.0074898064796771
                ],
                "label": "B",
                "properties": {}
            },
            {
                "species": [
                    {
                        "element": "O",
                        "occu": 1
                    }
                ],
                "abc": [
                    0.13948282,
                    0.90758894,
                    0.92330857
                ],
                "xyz": [
                    5.143436018223828,
                    8.149564297560302,
                    5.74225941878722
                ],
                "label": "O",
                "properties": {}
            },
            {
                "species": [
                    {
                        "element": "O",
                        "occu": 1
                    }
                ],
                "abc": [
                    0.86051718,
                    0.09241106,
                    0.07669143
                ],
                "xyz": [
                    6.282328061776171,
                    0.7834781324396982,
                    0.4758378212127806
                ],
                "label": "O",
                "properties": {}
            },
            {
                "species": [
                    {
                        "element": "O",
                        "occu": 1
                    }
                ],
                "abc": [
                    0.62000143,
                    0.63963917,
                    0.89130715
                ],
                "xyz": [
                    7.692124968970104,
                    6.357018245389255,
                    5.543987344013174
                ],
                "label": "O",
                "properties": {}
            },
            {
                "species": [
                    {
                        "element": "O",
                        "occu": 1
                    }
                ],
                "abc": [
                    0.37999857,
                    0.36036083,
                    0.10869285
                ],
                "xyz": [
                    3.733639111029895,
                    2.576024184610746,
                    0.6741098959868264
                ],
                "label": "O",
                "properties": {}
            },
            {
                "species": [
                    {
                        "element": "O",
                        "occu": 1
                    }
                ],
                "abc": [
                    0.86856617,
                    0.18029718,
                    0.69430647
                ],
                "xyz": [
                    7.830652329537741,
                    2.922293691175544,
                    4.319964212010839
                ],
                "label": "O",
                "properties": {}
            },
            {
                "species": [
                    {
                        "element": "O",
                        "occu": 1
                    }
                ],
                "abc": [
                    0.13143383,
                    0.81970282,
                    0.30569353
                ],
                "xyz": [
                    3.5951117504622596,
                    6.010748738824455,
                    1.8981330279891613
                ],
                "label": "O",
                "properties": {}
            },
            {
                "species": [
                    {
                        "element": "O",
                        "occu": 1
                    }
                ],
                "abc": [
                    0.28547997,
                    0.65150127,
                    0.6237843
                ],
                "xyz": [
                    4.880867512330532,
                    5.74995790368818,
                    3.879003673120524
                ],
                "label": "O",
                "properties": {}
            },
            {
                "species": [
                    {
                        "element": "O",
                        "occu": 1
                    }
                ],
                "abc": [
                    0.71452003,
                    0.34849873,
                    0.3762157
                ],
                "xyz": [
                    6.5448965676694675,
                    3.18308452631182,
                    2.339093566879475
                ],
                "label": "O",
                "properties": {}
            },
            {
                "species": [
                    {
                        "element": "O",
                        "occu": 1
                    }
                ],
                "abc": [
                    0.80359197,
                    0.82699571,
                    0.96910236
                ],
                "xyz": [
                    9.581435538879544,
                    7.750746910121863,
                    6.026977346846936
                ],
                "label": "O",
                "properties": {}
            },
            {
                "species": [
                    {
                        "element": "O",
                        "occu": 1
                    }
                ],
                "abc": [
                    0.19640803,
                    0.17300429,
                    0.03089764
                ],
                "xyz": [
                    1.8443285411204564,
                    1.1822955198781377,
                    0.19111989315306457
                ],
                "label": "O",
                "properties": {}
            },
            {
                "species": [
                    {
                        "element": "O",
                        "occu": 1
                    }
                ],
                "abc": [
                    0.66891318,
                    0.99219284,
                    0.63745909
                ],
                "xyz": [
                    8.392800538582732,
                    7.95769291881402,
                    3.9617364127120407
                ],
                "label": "O",
                "properties": {}
            },
            {
                "species": [
                    {
                        "element": "O",
                        "occu": 1
                    }
                ],
                "abc": [
                    0.33108682,
                    0.00780716,
                    0.36254091
                ],
                "xyz": [
                    3.032963541417269,
                    0.9753495111859788,
                    2.2563608272879594
                ],
                "label": "O",
                "properties": {}
            }
        ]
    },
    "spacegroup": {
        "source": "spglib",
        "symbol": "P-1",
        "number": 2,
        "point_group": "-1",
        "crystal_system": "triclinic",
        "hall": "-P 1"
    },
    "dielectric": {
        "epsilon_ionic": [
            [
                3.29009956,
                -0.05770926,
                -0.05115575
            ],
            [
                -0.05770926,
                2.38284966,
                -0.19721071
            ],
            [
                -0.05115575,
                -0.19721071,
                2.75123025
            ]
        ],
        "epsilon_ionic_avg": 2.8080598233333336,
        "epsilon_ionic_eig": [
            3.2967220414296516,
            2.2918021495533676,
            2.8356552790169807
        ],
        "epsilon_electronic": [
            [
                2.55819414,
                0.13393602,
                0.13768564
            ],
            [
                0.13393509,
                2.4593712,
                -0.09605864
            ],
            [
                0.13768547,
                -0.09605865,
                2.59274103
            ]
        ],
        "epsilon_electronic_avg": 2.5367687900000013,
        "epsilon_electronic_eig": [
            2.2833639496629585,
            2.7159494009116347,
            2.610993019425411
        ]
    },
    "phonon": {
        "lowest_freq": -0.11985241099314403,
        "frequency": [
            -0.11985241099314403,
            -0.056518305514816986,
            -0.04343388669405292,
            2.125712852069147,
            2.575439049062138,
            2.9012764501986683,
            3.3931211434314834,
            3.4672956606380456,
            3.6073786608117557,
            3.8226556379930385,
            3.9890159923292514,
            4.0444460398267905,
            4.480809906741924,
            4.5261309485103585,
            4.88840347279627,
            4.927992057195386,
            5.0882802703815155,
            5.52259257006005,
            5.80667046128281,
            6.261637501523232,
            6.4888906896811225,
            6.8421311487334275,
            7.0744373485474945,
            7.4468366093029745,
            7.757305180073633,
            8.532738106974435,
            8.812370781190591,
            11.033283389681749,
            12.002422492227108,
            12.885343104292124,
            13.104124736025518,
            13.458135547491004,
            13.966362574355644,
            15.184495892825536,
            15.580009404654101,
            15.854658568486197,
            17.178155649328154,
            17.941273026852134,
            18.11428780114025,
            18.323937389176415,
            19.45351133469313,
            19.801761266217156,
            20.013495675906498,
            20.442660134285795,
            20.524472257580815,
            21.52554308388764,
            21.957527915254612,
            22.090480496049377,
            25.00410041813982,
            25.47457560312119,
            27.621121264177138,
            28.061570938681022,
            28.618791141105877,
            29.34389937590002,
            30.05060539686678,
            32.26424474186805,
            32.57747223031166,
            33.736590809363236,
            36.22856700105345,
            36.329731357346745,
            38.74620244830135,
            39.28761707835503,
            40.880747372114016,
            41.18108664967336,
            42.969135309783304,
            43.41806860694135
        ]
    },
    "born_effective_charge": {
        "avg_abs_trace": 1.7292374242424244,
        "tensors": [
            [
                [
                    1.17217,
                    0.09815,
                    -0.04947
                ],
                [
                    0.08485,
                    1.24184,
                    0.01817
                ],
                [
                    -0.04582,
                    -0.00633,
                    1.19623
                ]
            ],
            [
                [
                    1.17216,
                    0.09817,
                    -0.04947
                ],
                [
                    0.08483,
                    1.24185,
                    0.01816
                ],
                [
                    -0.04581,
                    -0.00632,
                    1.19625
                ]
            ],
            [
                [
                    1.95656,
                    -0.11289,
                    0.18372
                ],
                [
                    -0.08367,
                    2.05929,
                    -0.21257
                ],
                [
                    0.27297,
                    0.00787,
                    2.02881
                ]
            ],
            [
                [
                    1.95655,
                    -0.11289,
                    0.18372
                ],
                [
                    -0.08366,
                    2.05928,
                    -0.21249
                ],
                [
                    0.27299,
                    0.00789,
                    2.02878
                ]
            ],
            [
                [
                    2.65879,
                    0.31814,
                    0.5642
                ],
                [
                    0.2768,
                    1.85774,
                    0.1714
                ],
                [
                    0.5768,
                    0.07653,
                    2.38308
                ]
            ],
            [
                [
                    2.65877,
                    0.31819,
                    0.56419
                ],
                [
                    0.27675,
                    1.85787,
                    0.17141
                ],
                [
                    0.57684,
                    0.07654,
                    2.38308
                ]
            ],
            [
                [
                    1.80502,
                    0.48065,
                    0.68722
                ],
                [
                    0.59308,
                    1.48896,
                    -0.61023
                ],
                [
                    0.52004,
                    -0.93175,
                    2.60186
                ]
            ],
            [
                [
                    1.80505,
                    0.48065,
                    0.68725
                ],
                [
                    0.59321,
                    1.48896,
                    -0.61014
                ],
                [
                    0.51998,
                    -0.93177,
                    2.60185
                ]
            ],
            [
                [
                    2.12315,
                    1.19114,
                    0.26626
                ],
                [
                    1.09992,
                    1.88714,
                    -0.54482
                ],
                [
                    0.2211,
                    -0.64749,
                    2.07178
                ]
            ],
            [
                [
                    2.12315,
                    1.19113,
                    0.26629
                ],
                [
                    1.09992,
                    1.88709,
                    -0.54473
                ],
                [
                    0.22111,
                    -0.64747,
                    2.07174
                ]
            ],
            [
                [
                    -1.86079,
                    0.24212,
                    -0.30689
                ],
                [
                    0.22479,
                    -1.7151,
                    -0.49342
                ],
                [
                    -0.31413,
                    -0.50986,
                    -1.46578
                ]
            ],
            [
                [
                    -1.86084,
                    0.24209,
                    -0.30684
                ],
                [
                    0.2246,
                    -1.71522,
                    -0.49327
                ],
                [
                    -0.31401,
                    -0.50968,
                    -1.46593
                ]
            ],
            [
                [
                    -1.94593,
                    -0.71717,
                    0.17578
                ],
                [
                    -0.65239,
                    -1.79022,
                    0.53928
                ],
                [
                    0.16517,
                    0.50476,
                    -1.32453
                ]
            ],
            [
                [
                    -1.94594,
                    -0.71716,
                    0.17578
                ],
                [
                    -0.65235,
                    -1.79015,
                    0.53926
                ],
                [
                    0.16508,
                    0.50467,
                    -1.32453
                ]
            ],
            [
                [
                    -1.59627,
                    -0.16428,
                    -0.79586
                ],
                [
                    -0.20544,
                    -0.98259,
                    0.1657
                ],
                [
                    -0.72203,
                    0.26044,
                    -2.09124
                ]
            ],
            [
                [
                    -1.59629,
                    -0.16434,
                    -0.79583
                ],
                [
                    -0.20573,
                    -0.98265,
                    0.16574
                ],
                [
                    -0.72175,
                    0.26045,
                    -2.09123
                ]
            ],
            [
                [
                    -1.13696,
                    0.03291,
                    -0.44743
                ],
                [
                    -0.04597,
                    -1.30803,
                    0.28387
                ],
                [
                    -0.41637,
                    0.4533,
                    -2.31859
                ]
            ],
            [
                [
                    -1.13699,
                    0.03279,
                    -0.4473
                ],
                [
                    -0.04605,
                    -1.3084,
                    0.28429
                ],
                [
                    -0.41634,
                    0.45354,
                    -2.31877
                ]
            ],
            [
                [
                    -2.00205,
                    -0.84917,
                    -0.34427
                ],
                [
                    -0.78954,
                    -1.28067,
                    -0.03931
                ],
                [
                    -0.3532,
                    -0.03713,
                    -1.29866
                ]
            ],
            [
                [
                    -2.00205,
                    -0.84913,
                    -0.34431
                ],
                [
                    -0.78952,
                    -1.28082,
                    -0.03927
                ],
                [
                    -0.35331,
                    -0.03683,
                    -1.29877
                ]
            ],
            [
                [
                    -1.17361,
                    -0.51953,
                    0.06667
                ],
                [
                    -0.50208,
                    -1.45801,
                    0.72158
                ],
                [
                    0.09527,
                    0.82924,
                    -1.78276
                ]
            ],
            [
                [
                    -1.17366,
                    -0.51956,
                    0.0666
                ],
                [
                    -0.50233,
                    -1.45814,
                    0.72137
                ],
                [
                    0.09543,
                    0.82936,
                    -1.78265
                ]
            ]
        ]
    },
    "band_gap": 4.7499,
    "is_direct": false,
    "formula": "KZn(BO2)3"
}