{
    "mp_id": "mp-19014",
    "nelements": 4,
    "nsites": 20,
    "elements": [
        "Cd",
        "O",
        "Sr",
        "W"
    ],
    "structure": {
        "@module": "pymatgen.core.structure",
        "@class": "Structure",
        "charge": null,
        "lattice": {
            "matrix": [
                [
                    5.71273132,
                    0.0,
                    0.0010372
                ],
                [
                    0.0,
                    5.86275389,
                    0.0
                ],
                [
                    -5.71887972,
                    0.0,
                    8.11349147
                ]
            ],
            "a": 5.712731414156698,
            "b": 5.86275389,
            "c": 9.926445944324183,
            "alpha": 90.0,
            "beta": 125.16809489726495,
            "gamma": 90.0,
            "volume": 271.77457243818424
        },
        "sites": [
            {
                "species": [
                    {
                        "element": "Sr",
                        "occu": 1
                    }
                ],
                "abc": [
                    0.75882653,
                    0.54700595,
                    0.74818259
                ],
                "xyz": [
                    0.05620584356984448,
                    3.206961261215645,
                    6.071160116844423
                ],
                "label": "Sr",
                "properties": {}
            },
            {
                "species": [
                    {
                        "element": "Sr",
                        "occu": 1
                    }
                ],
                "abc": [
                    0.24117347,
                    0.04700595,
                    0.75181741
                ],
                "xyz": [
                    -2.9217941035698454,
                    0.27558431621564544,
                    6.100114288155576
                ],
                "label": "Sr",
                "properties": {}
            },
            {
                "species": [
                    {
                        "element": "Sr",
                        "occu": 1
                    }
                ],
                "abc": [
                    0.24117347,
                    0.45299405,
                    0.25181741
                ],
                "xyz": [
                    -0.0623542435698452,
                    2.6557926287843543,
                    2.043368553155577
                ],
                "label": "Sr",
                "properties": {}
            },
            {
                "species": [
                    {
                        "element": "Sr",
                        "occu": 1
                    }
                ],
                "abc": [
                    0.75882653,
                    0.95299405,
                    0.24818259
                ],
                "xyz": [
                    2.9156457035698446,
                    5.5871695737843545,
                    2.0144143818444236
                ],
                "label": "Sr",
                "properties": {}
            },
            {
                "species": [
                    {
                        "element": "Cd",
                        "occu": 1
                    }
                ],
                "abc": [
                    0.5,
                    0.5,
                    0.0
                ],
                "xyz": [
                    2.85636566,
                    2.931376945,
                    0.0005186
                ],
                "label": "Cd",
                "properties": {}
            },
            {
                "species": [
                    {
                        "element": "Cd",
                        "occu": 1
                    }
                ],
                "abc": [
                    0.5,
                    0.0,
                    0.5
                ],
                "xyz": [
                    -0.00307420000000036,
                    0.0,
                    4.057264335
                ],
                "label": "Cd",
                "properties": {}
            },
            {
                "species": [
                    {
                        "element": "W",
                        "occu": 1
                    }
                ],
                "abc": [
                    0.0,
                    0.0,
                    0.0
                ],
                "xyz": [
                    0.0,
                    0.0,
                    0.0
                ],
                "label": "W",
                "properties": {}
            },
            {
                "species": [
                    {
                        "element": "W",
                        "occu": 1
                    }
                ],
                "abc": [
                    0.0,
                    0.5,
                    0.5
                ],
                "xyz": [
                    -2.85943986,
                    2.931376945,
                    4.056745735
                ],
                "label": "W",
                "properties": {}
            },
            {
                "species": [
                    {
                        "element": "O",
                        "occu": 1
                    }
                ],
                "abc": [
                    0.13120561,
                    0.26951153,
                    0.94977729
                ],
                "xyz": [
                    -4.682119684690854,
                    1.5800797709073515,
                    7.706146027273408
                ],
                "label": "O",
                "properties": {}
            },
            {
                "species": [
                    {
                        "element": "O",
                        "occu": 1
                    }
                ],
                "abc": [
                    0.86879439,
                    0.76951153,
                    0.55022271
                ],
                "xyz": [
                    1.8165314246908535,
                    4.511456715907352,
                    4.465128377726591
                ],
                "label": "O",
                "properties": {}
            },
            {
                "species": [
                    {
                        "element": "O",
                        "occu": 1
                    }
                ],
                "abc": [
                    0.86879439,
                    0.73048847,
                    0.05022271
                ],
                "xyz": [
                    4.675971284690854,
                    4.282674119092648,
                    0.40838264272659164
                ],
                "label": "O",
                "properties": {}
            },
            {
                "species": [
                    {
                        "element": "O",
                        "occu": 1
                    }
                ],
                "abc": [
                    0.13120561,
                    0.23048847,
                    0.44977729
                ],
                "xyz": [
                    -1.8226798246908538,
                    1.3512971740926483,
                    3.649400292273408
                ],
                "label": "O",
                "properties": {}
            },
            {
                "species": [
                    {
                        "element": "O",
                        "occu": 1
                    }
                ],
                "abc": [
                    0.23185715,
                    0.81413025,
                    0.95946286
                ],
                "xyz": [
                    -4.162515089576262,
                    4.7730452901541724,
                    7.784834212627784
                ],
                "label": "O",
                "properties": {}
            },
            {
                "species": [
                    {
                        "element": "O",
                        "occu": 1
                    }
                ],
                "abc": [
                    0.76814285,
                    0.31413025,
                    0.54053714
                ],
                "xyz": [
                    1.2969268295762615,
                    1.8416683451541724,
                    4.386440192372215
                ],
                "label": "O",
                "properties": {}
            },
            {
                "species": [
                    {
                        "element": "O",
                        "occu": 1
                    }
                ],
                "abc": [
                    0.76814285,
                    0.18586975,
                    0.04053714
                ],
                "xyz": [
                    4.156366689576261,
                    1.0897085998458274,
                    0.3296944573722158
                ],
                "label": "O",
                "properties": {}
            },
            {
                "species": [
                    {
                        "element": "O",
                        "occu": 1
                    }
                ],
                "abc": [
                    0.23185715,
                    0.68586975,
                    0.45946286
                ],
                "xyz": [
                    -1.3030752295762613,
                    4.0210855448458265,
                    3.7280884776277836
                ],
                "label": "O",
                "properties": {}
            },
            {
                "species": [
                    {
                        "element": "O",
                        "occu": 1
                    }
                ],
                "abc": [
                    0.3147999,
                    0.47005553,
                    0.72852817
                ],
                "xyz": [
                    -2.367997728598845,
                    2.7558198870235113,
                    5.91123360340599
                ],
                "label": "O",
                "properties": {}
            },
            {
                "species": [
                    {
                        "element": "O",
                        "occu": 1
                    }
                ],
                "abc": [
                    0.6852001,
                    0.97005553,
                    0.77147183
                ],
                "xyz": [
                    -0.4975905314011557,
                    5.687196832023512,
                    6.260040801594009
                ],
                "label": "O",
                "properties": {}
            },
            {
                "species": [
                    {
                        "element": "O",
                        "occu": 1
                    }
                ],
                "abc": [
                    0.6852001,
                    0.52994447,
                    0.27147183
                ],
                "xyz": [
                    2.361849328598844,
                    3.1069340029764883,
                    2.20329506659401
                ],
                "label": "O",
                "properties": {}
            },
            {
                "species": [
                    {
                        "element": "O",
                        "occu": 1
                    }
                ],
                "abc": [
                    0.3147999,
                    0.02994447,
                    0.22852817
                ],
                "xyz": [
                    0.49144213140115567,
                    0.1755570579764883,
                    1.8544878684059898
                ],
                "label": "O",
                "properties": {}
            }
        ]
    },
    "spacegroup": {
        "source": "spglib",
        "symbol": "P2_1/c",
        "number": 14,
        "point_group": "2/m",
        "crystal_system": "monoclinic",
        "hall": "-P 2ybc"
    },
    "dielectric": {
        "epsilon_ionic": [
            [
                15.37900145,
                -1e-08,
                -0.05520303
            ],
            [
                -1e-08,
                15.85809462,
                -0.0
            ],
            [
                -0.05520303,
                -0.0,
                17.78851916
            ]
        ],
        "epsilon_ionic_avg": 16.34187174333334,
        "epsilon_ionic_eig": [
            15.37773738928816,
            17.78978322071185,
            15.85809462
        ],
        "epsilon_electronic": [
            [
                4.70885521,
                0.0,
                0.041061
            ],
            [
                0.0,
                4.76288767,
                0.0
            ],
            [
                0.04106009,
                0.0,
                4.69665342
            ]
        ],
        "epsilon_electronic_avg": 4.722798766666666,
        "epsilon_electronic_eig": [
            4.744265630027243,
            4.661242999972757,
            4.76288767
        ]
    },
    "phonon": {
        "lowest_freq": -0.02444362545420459,
        "frequency": [
            -0.02444362545420459,
            -0.021488202666314713,
            -0.019846660066860648,
            2.1795495737444193,
            2.625565719114115,
            2.800945870014921,
            2.951334275119965,
            3.085077373355316,
            3.155561155192584,
            3.2301503661730187,
            3.295581271450218,
            3.3216221635874366,
            3.686903484580131,
            3.7736118117932738,
            4.102062849678412,
            4.1292556013348,
            4.227367156086163,
            4.563087967130925,
            4.626546239933342,
            4.659749152398995,
            4.774187904449222,
            4.79194764010487,
            5.269563580000381,
            5.398238716304507,
            5.422445921119288,
            5.431615152694518,
            5.589431462596947,
            6.150047261908063,
            7.025591151680121,
            7.311452953335473,
            7.58980882387007,
            7.713490360264382,
            7.8916411282342525,
            7.979982292286752,
            8.821439739542342,
            8.909786578450802,
            9.301774122149707,
            9.878942262920667,
            10.065076900647593,
            11.180238463539727,
            11.345496925361141,
            11.388828038613394,
            11.918190551792756,
            12.586114520152934,
            12.760961678415374,
            12.762826475322003,
            12.93091593459597,
            13.486055542847632,
            16.02855953617706,
            16.38812801562934,
            16.440160857947582,
            16.88894557331677,
            16.987818261083497,
            17.49671274726647,
            17.56562404196431,
            17.665859601576923,
            18.181943099103158,
            20.32315731135932,
            22.885339888281592,
            23.238115907702998
        ]
    },
    "born_effective_charge": {
        "avg_abs_trace": 3.0724103333333335,
        "tensors": [
            [
                [
                    2.58283,
                    0.13812,
                    0.10596
                ],
                [
                    0.18624,
                    2.5315,
                    0.07969
                ],
                [
                    -0.0463,
                    0.17619,
                    2.46837
                ]
            ],
            [
                [
                    2.58291,
                    -0.13819,
                    0.10599
                ],
                [
                    -0.18624,
                    2.5315,
                    -0.07969
                ],
                [
                    -0.04638,
                    -0.17619,
                    2.46834
                ]
            ],
            [
                [
                    2.58291,
                    0.13819,
                    0.10599
                ],
                [
                    0.1865,
                    2.53152,
                    0.07927
                ],
                [
                    -0.04638,
                    0.17619,
                    2.46834
                ]
            ],
            [
                [
                    2.58283,
                    -0.13812,
                    0.10596
                ],
                [
                    -0.1865,
                    2.53152,
                    -0.07927
                ],
                [
                    -0.0463,
                    -0.17619,
                    2.46837
                ]
            ],
            [
                [
                    2.89481,
                    0.24933,
                    -0.35004
                ],
                [
                    -0.22399,
                    3.01459,
                    0.02213
                ],
                [
                    0.32788,
                    0.0984,
                    2.95109
                ]
            ],
            [
                [
                    2.89481,
                    -0.24933,
                    -0.35004
                ],
                [
                    0.22399,
                    3.01459,
                    -0.02213
                ],
                [
                    0.32788,
                    -0.0984,
                    2.95109
                ]
            ],
            [
                [
                    7.34466,
                    -0.3431,
                    0.35871
                ],
                [
                    0.00223,
                    7.36017,
                    0.09619
                ],
                [
                    -0.16139,
                    0.13835,
                    7.35538
                ]
            ],
            [
                [
                    7.34466,
                    0.3431,
                    0.35871
                ],
                [
                    -0.00223,
                    7.36017,
                    -0.09619
                ],
                [
                    -0.16139,
                    -0.13835,
                    7.35538
                ]
            ],
            [
                [
                    -2.49023,
                    1.18525,
                    -0.34617
                ],
                [
                    1.15433,
                    -3.4565,
                    0.48964
                ],
                [
                    -0.31788,
                    0.44826,
                    -1.78211
                ]
            ],
            [
                [
                    -2.49014,
                    -1.18523,
                    -0.34617
                ],
                [
                    -1.15433,
                    -3.4565,
                    -0.48964
                ],
                [
                    -0.31793,
                    -0.44836,
                    -1.78216
                ]
            ],
            [
                [
                    -2.49014,
                    1.18523,
                    -0.34617
                ],
                [
                    1.1539,
                    -3.45725,
                    0.48991
                ],
                [
                    -0.31793,
                    0.44836,
                    -1.78216
                ]
            ],
            [
                [
                    -2.49023,
                    -1.18525,
                    -0.34617
                ],
                [
                    -1.1539,
                    -3.45725,
                    -0.48991
                ],
                [
                    -0.31788,
                    -0.44826,
                    -1.78211
                ]
            ],
            [
                [
                    -3.29094,
                    -1.12884,
                    -0.30088
                ],
                [
                    -1.14931,
                    -2.58212,
                    -0.2275
                ],
                [
                    -0.31497,
                    -0.15609,
                    -1.75499
                ]
            ],
            [
                [
                    -3.29089,
                    1.12883,
                    -0.30092
                ],
                [
                    1.14931,
                    -2.58212,
                    0.2275
                ],
                [
                    -0.31502,
                    0.15611,
                    -1.75502
                ]
            ],
            [
                [
                    -3.29089,
                    -1.12883,
                    -0.30092
                ],
                [
                    -1.14939,
                    -2.58205,
                    -0.22766
                ],
                [
                    -0.31502,
                    -0.15611,
                    -1.75502
                ]
            ],
            [
                [
                    -3.29094,
                    1.12884,
                    -0.30088
                ],
                [
                    1.14939,
                    -2.58205,
                    0.22766
                ],
                [
                    -0.31497,
                    0.15609,
                    -1.75499
                ]
            ],
            [
                [
                    -1.92149,
                    0.01315,
                    0.53674
                ],
                [
                    0.0983,
                    -1.67995,
                    0.25484
                ],
                [
                    0.59603,
                    0.27444,
                    -4.08446
                ]
            ],
            [
                [
                    -1.92151,
                    -0.01318,
                    0.53677
                ],
                [
                    -0.0983,
                    -1.67995,
                    -0.25484
                ],
                [
                    0.59596,
                    -0.27444,
                    -4.08443
                ]
            ],
            [
                [
                    -1.92151,
                    0.01318,
                    0.53677
                ],
                [
                    0.09813,
                    -1.6799,
                    0.2555
                ],
                [
                    0.59596,
                    0.27444,
                    -4.08443
                ]
            ],
            [
                [
                    -1.92149,
                    -0.01315,
                    0.53674
                ],
                [
                    -0.09813,
                    -1.6799,
                    -0.2555
                ],
                [
                    0.59603,
                    -0.27444,
                    -4.08446
                ]
            ]
        ]
    },
    "band_gap": 3.2368000000000006,
    "is_direct": false,
    "formula": "Sr2CdWO6"
}