{
    "mp_id": "mp-17208",
    "nelements": 4,
    "nsites": 33,
    "elements": [
        "K",
        "Li",
        "O",
        "Zr"
    ],
    "structure": {
        "@module": "pymatgen.core.structure",
        "@class": "Structure",
        "charge": null,
        "lattice": {
            "matrix": [
                [
                    -3.64968073,
                    3.91175647,
                    6.25782901
                ],
                [
                    3.64968073,
                    -3.91175647,
                    6.25782901
                ],
                [
                    3.64968073,
                    3.91175647,
                    -6.25782901
                ]
            ],
            "a": 8.233008686374488,
            "b": 8.233008686374488,
            "c": 8.233008686374488,
            "alpha": 127.37093773857727,
            "beta": 123.26425913459185,
            "gamma": 81.05570374436422,
            "volume": 357.36364375009947
        },
        "sites": [
            {
                "species": [
                    {
                        "element": "K",
                        "occu": 1
                    }
                ],
                "abc": [
                    0.5,
                    0.75722817,
                    0.25722817
                ],
                "xyz": [
                    1.8776013905243278,
                    -2.220446049250313e-16,
                    6.25782901
                ],
                "label": "K",
                "properties": {}
            },
            {
                "species": [
                    {
                        "element": "K",
                        "occu": 1
                    }
                ],
                "abc": [
                    0.5,
                    0.24277183,
                    0.74277183
                ],
                "xyz": [
                    1.772079339475672,
                    3.9117564700000003,
                    0.0
                ],
                "label": "K",
                "properties": {}
            },
            {
                "species": [
                    {
                        "element": "Li",
                        "occu": 1
                    }
                ],
                "abc": [
                    0.70476097,
                    0.13775821,
                    0.11429548
                ],
                "xyz": [
                    -1.6522370361467147,
                    2.665072798319613,
                    4.557099395629537
                ],
                "label": "Li",
                "properties": {}
            },
            {
                "species": [
                    {
                        "element": "Li",
                        "occu": 1
                    }
                ],
                "abc": [
                    0.97653627,
                    0.86224179,
                    0.56700276
                ],
                "xyz": [
                    1.652240685827445,
                    2.6650688865631427,
                    7.958552366541452
                ],
                "label": "Li",
                "properties": {}
            },
            {
                "species": [
                    {
                        "element": "Li",
                        "occu": 1
                    }
                ],
                "abc": [
                    0.02346373,
                    0.59046649,
                    0.88570452
                ],
                "xyz": [
                    5.3019177661467145,
                    1.2466836716803873,
                    -1.7007170987124427
                ],
                "label": "Li",
                "properties": {}
            },
            {
                "species": [
                    {
                        "element": "Li",
                        "occu": 1
                    }
                ],
                "abc": [
                    0.29523903,
                    0.40953351,
                    0.43299724
                ],
                "xyz": [
                    1.9974400441725557,
                    1.2466875834368574,
                    1.7007233565414532
                ],
                "label": "Li",
                "properties": {}
            },
            {
                "species": [
                    {
                        "element": "Li",
                        "occu": 1
                    }
                ],
                "abc": [
                    0.02346373,
                    0.13775821,
                    0.43299724
                ],
                "xyz": [
                    1.9974400441725557,
                    1.2466875834368571,
                    -1.700723356541453
                ],
                "label": "Li",
                "properties": {}
            },
            {
                "species": [
                    {
                        "element": "Li",
                        "occu": 1
                    }
                ],
                "abc": [
                    0.84594539,
                    0.5,
                    0.34594539
                ],
                "xyz": [
                    2.220446049250313e-16,
                    2.7065082351983465,
                    6.25782901
                ],
                "label": "Li",
                "properties": {}
            },
            {
                "species": [
                    {
                        "element": "Li",
                        "occu": 1
                    }
                ],
                "abc": [
                    0.15405461,
                    0.5,
                    0.65405461
                ],
                "xyz": [
                    3.64968073,
                    1.2052482348016533,
                    0.0
                ],
                "label": "Li",
                "properties": {}
            },
            {
                "species": [
                    {
                        "element": "Li",
                        "occu": 1
                    }
                ],
                "abc": [
                    0.41268924,
                    0.77111708,
                    0.64157216
                ],
                "xyz": [
                    3.64968073,
                    1.1075916257037504,
                    3.393208656660982
                ],
                "label": "Li",
                "properties": {}
            },
            {
                "species": [
                    {
                        "element": "Li",
                        "occu": 1
                    }
                ],
                "abc": [
                    0.58731076,
                    0.22888292,
                    0.35842784
                ],
                "xyz": [
                    0.0,
                    2.80416484429625,
                    2.8646203533390184
                ],
                "label": "Li",
                "properties": {}
            },
            {
                "species": [
                    {
                        "element": "Li",
                        "occu": 1
                    }
                ],
                "abc": [
                    0.87045508,
                    0.22888292,
                    0.64157216
                ],
                "xyz": [
                    0.0,
                    5.01934809570375,
                    2.864620353339019
                ],
                "label": "Li",
                "properties": {}
            },
            {
                "species": [
                    {
                        "element": "Li",
                        "occu": 1
                    }
                ],
                "abc": [
                    0.12954492,
                    0.77111708,
                    0.35842784
                ],
                "xyz": [
                    3.64968073,
                    -1.1075916257037501,
                    3.3932086566609816
                ],
                "label": "Li",
                "properties": {}
            },
            {
                "species": [
                    {
                        "element": "Li",
                        "occu": 1
                    }
                ],
                "abc": [
                    0.70476097,
                    0.59046649,
                    0.56700276
                ],
                "xyz": [
                    1.6522406858274445,
                    2.665068886563143,
                    4.557105653458548
                ],
                "label": "Li",
                "properties": {}
            },
            {
                "species": [
                    {
                        "element": "Li",
                        "occu": 1
                    }
                ],
                "abc": [
                    0.29523903,
                    0.86224179,
                    0.88570452
                ],
                "xyz": [
                    5.301917766146715,
                    1.2466836716803873,
                    1.7007296143704629
                ],
                "label": "Li",
                "properties": {}
            },
            {
                "species": [
                    {
                        "element": "Li",
                        "occu": 1
                    }
                ],
                "abc": [
                    0.97653627,
                    0.40953351,
                    0.11429548
                ],
                "xyz": [
                    -1.6522370361467142,
                    2.665072798319613,
                    7.958546108712442
                ],
                "label": "Li",
                "properties": {}
            },
            {
                "species": [
                    {
                        "element": "Zr",
                        "occu": 1
                    }
                ],
                "abc": [
                    0.0,
                    0.0,
                    0.0
                ],
                "xyz": [
                    0.0,
                    0.0,
                    0.0
                ],
                "label": "Zr",
                "properties": {}
            },
            {
                "species": [
                    {
                        "element": "Zr",
                        "occu": 1
                    }
                ],
                "abc": [
                    0.27076086,
                    0.27076086,
                    0.0
                ],
                "xyz": [
                    0.0,
                    0.0,
                    3.388750328961097
                ],
                "label": "Zr",
                "properties": {}
            },
            {
                "species": [
                    {
                        "element": "Zr",
                        "occu": 1
                    }
                ],
                "abc": [
                    0.72923914,
                    0.72923914,
                    0.0
                ],
                "xyz": [
                    0.0,
                    0.0,
                    9.126907691038904
                ],
                "label": "Zr",
                "properties": {}
            },
            {
                "species": [
                    {
                        "element": "O",
                        "occu": 1
                    }
                ],
                "abc": [
                    0.04968511,
                    0.87122234,
                    0.17846277
                ],
                "xyz": [
                    3.64968073,
                    -2.515550679596756,
                    4.646091856824167
                ],
                "label": "O",
                "properties": {}
            },
            {
                "species": [
                    {
                        "element": "O",
                        "occu": 1
                    }
                ],
                "abc": [
                    0.41893834,
                    0.62897966,
                    0.78995868
                ],
                "xyz": [
                    3.6496807300000005,
                    2.268495485045319,
                    1.6142653160958735
                ],
                "label": "O",
                "properties": {}
            },
            {
                "species": [
                    {
                        "element": "O",
                        "occu": 1
                    }
                ],
                "abc": [
                    0.83902097,
                    0.62897966,
                    0.21004132
                ],
                "xyz": [
                    3.649680790918097e-08,
                    1.6432609458371157,
                    7.8720942635175835
                ],
                "label": "O",
                "properties": {}
            },
            {
                "species": [
                    {
                        "element": "O",
                        "occu": 1
                    }
                ],
                "abc": [
                    0.58106166,
                    0.37102034,
                    0.21004132
                ],
                "xyz": [
                    1.1102230246251565e-16,
                    1.643260984954681,
                    4.6435636939041265
                ],
                "label": "O",
                "properties": {}
            },
            {
                "species": [
                    {
                        "element": "O",
                        "occu": 1
                    }
                ],
                "abc": [
                    0.16097903,
                    0.37102034,
                    0.78995868
                ],
                "xyz": [
                    3.649680693503193,
                    2.2684955241628844,
                    -1.614265253517583
                ],
                "label": "O",
                "properties": {}
            },
            {
                "species": [
                    {
                        "element": "O",
                        "occu": 1
                    }
                ],
                "abc": [
                    0.74461223,
                    0.03143581,
                    0.28682258
                ],
                "xyz": [
                    -1.556055394009503,
                    3.9117525582435295,
                    3.0614892760185946
                ],
                "label": "O",
                "properties": {}
            },
            {
                "species": [
                    {
                        "element": "O",
                        "occu": 1
                    }
                ],
                "abc": [
                    0.25538777,
                    0.54221035,
                    0.28682258
                ],
                "xyz": [
                    2.093621686309767,
                    4.440892098500626e-16,
                    3.196345991810415
                ],
                "label": "O",
                "properties": {}
            },
            {
                "species": [
                    {
                        "element": "O",
                        "occu": 1
                    }
                ],
                "abc": [
                    0.25538777,
                    0.96856419,
                    0.71317742
                ],
                "xyz": [
                    5.205736124009503,
                    3.911756469410221e-06,
                    3.1963397339814064
                ],
                "label": "O",
                "properties": {}
            },
            {
                "species": [
                    {
                        "element": "O",
                        "occu": 1
                    }
                ],
                "abc": [
                    0.74461223,
                    0.45778965,
                    0.71317742
                ],
                "xyz": [
                    1.556059043690233,
                    3.9117564699999994,
                    3.061483018189585
                ],
                "label": "O",
                "properties": {}
            },
            {
                "species": [
                    {
                        "element": "O",
                        "occu": 1
                    }
                ],
                "abc": [
                    0.0,
                    0.71231219,
                    0.71231219
                ],
                "xyz": [
                    5.199424147174198,
                    0.0,
                    0.0
                ],
                "label": "O",
                "properties": {}
            },
            {
                "species": [
                    {
                        "element": "O",
                        "occu": 1
                    }
                ],
                "abc": [
                    0.0,
                    0.28768781,
                    0.28768781
                ],
                "xyz": [
                    2.0999373128258023,
                    0.0,
                    0.0
                ],
                "label": "O",
                "properties": {}
            },
            {
                "species": [
                    {
                        "element": "O",
                        "occu": 1
                    }
                ],
                "abc": [
                    0.69275857,
                    0.87122234,
                    0.82153723
                ],
                "xyz": [
                    3.64968437968073,
                    2.515546767840286,
                    4.646085598995157
                ],
                "label": "O",
                "properties": {}
            },
            {
                "species": [
                    {
                        "element": "O",
                        "occu": 1
                    }
                ],
                "abc": [
                    0.30724143,
                    0.12877766,
                    0.17846277
                ],
                "xyz": [
                    -3.6496807300778755e-06,
                    1.3962097021597137,
                    1.6117434110048432
                ],
                "label": "O",
                "properties": {}
            },
            {
                "species": [
                    {
                        "element": "O",
                        "occu": 1
                    }
                ],
                "abc": [
                    0.95031489,
                    0.12877766,
                    0.82153723
                ],
                "xyz": [
                    4.440892098500626e-16,
                    6.427307149596755,
                    1.6117371531758327
                ],
                "label": "O",
                "properties": {}
            }
        ]
    },
    "spacegroup": {
        "source": "spglib",
        "symbol": "Immm",
        "number": 71,
        "point_group": "mmm",
        "crystal_system": "orthorhombic",
        "hall": "-I 2 2"
    },
    "dielectric": {
        "epsilon_ionic": [
            [
                6.22479319,
                0.0,
                -0.0
            ],
            [
                0.0,
                8.27987672,
                0.0
            ],
            [
                -0.0,
                0.0,
                9.95638457
            ]
        ],
        "epsilon_ionic_avg": 8.153684826666668,
        "epsilon_ionic_eig": [
            6.22479319,
            8.27987672,
            9.95638457
        ],
        "epsilon_electronic": [
            [
                3.22274474,
                0.0,
                0.0
            ],
            [
                0.0,
                3.16476846,
                0.0
            ],
            [
                0.0,
                0.0,
                3.34956834
            ]
        ],
        "epsilon_electronic_avg": 3.2456938466666667,
        "epsilon_electronic_eig": [
            3.22274474,
            3.16476846,
            3.34956834
        ]
    },
    "phonon": {
        "lowest_freq": -0.06778132300400475,
        "frequency": [
            -0.06778132300400475,
            -0.034968243694101404,
            -0.03484465823012956,
            1.436082349508647,
            2.3341209971423598,
            2.569129219751003,
            2.828216767509702,
            3.397601917259275,
            3.635648597351947,
            3.769098864625495,
            3.8447370200785578,
            4.3116685772503605,
            4.951802446132036,
            5.171910227272391,
            5.23618709561751,
            5.553587853657571,
            6.436808729473597,
            6.5219413549239,
            6.651083197484462,
            7.004098271185049,
            7.164435313548333,
            7.174205086931064,
            7.316310877009666,
            7.358213060879799,
            7.371352336564411,
            7.383780737236542,
            7.9547017070025205,
            8.064161904145616,
            8.187110569200378,
            8.248295355857476,
            8.269292851239612,
            8.318234796596695,
            8.356393901095657,
            8.668251645450937,
            9.066936192753886,
            9.09816195180573,
            9.222009015120216,
            9.301293114265466,
            9.455686837324379,
            9.523298879441882,
            9.754377141294771,
            10.260019096326518,
            10.26344087155708,
            10.353311437056751,
            10.426615316074479,
            10.495105610880827,
            10.722836177144437,
            10.822044293628306,
            11.15930709193758,
            11.469070790531159,
            11.520086420269484,
            11.716289847953352,
            12.038510634079973,
            12.053375693980305,
            12.246959082279568,
            12.50629070561415,
            12.857474323176547,
            12.93096248632078,
            13.163354887487568,
            13.472861240237567,
            13.766624102605794,
            13.983862803023655,
            13.994942795213204,
            14.120715615918016,
            14.396397162565826,
            14.407664659841858,
            14.849228139420939,
            15.08410508180108,
            15.112225940219249,
            15.2408430107761,
            15.2442505963456,
            15.259908395656307,
            15.499438087677706,
            15.551706838984117,
            15.582790037734142,
            15.777828623875866,
            15.928657099705191,
            16.119488974179358,
            16.309206948623164,
            16.390719210404676,
            16.51333065761676,
            16.559019002595495,
            16.71200649202338,
            16.737162356800727,
            16.899410733294832,
            16.901226780018334,
            16.980364989465354,
            17.425801080601595,
            17.473590333000924,
            17.661587582589295,
            17.981719783751725,
            18.073412506417426,
            18.22263550388978,
            18.414689065290368,
            18.835562927658803,
            19.970279262051918,
            20.382783021447594,
            21.48885306086962,
            21.7525460529837
        ]
    },
    "born_effective_charge": {
        "avg_abs_trace": 1.7324644444444446,
        "tensors": [
            [
                [
                    1.07528,
                    -0.0,
                    0.0
                ],
                [
                    -2e-05,
                    1.18525,
                    -0.0
                ],
                [
                    -0.0,
                    0.0,
                    1.38551
                ]
            ],
            [
                [
                    1.07537,
                    -0.0,
                    -0.0
                ],
                [
                    2e-05,
                    1.18525,
                    0.0
                ],
                [
                    0.0,
                    0.0,
                    1.38551
                ]
            ],
            [
                [
                    0.94419,
                    -0.26259,
                    -0.00313
                ],
                [
                    -0.296,
                    0.9581,
                    0.07497
                ],
                [
                    -0.08959,
                    0.10038,
                    0.90312
                ]
            ],
            [
                [
                    0.94419,
                    0.26258,
                    -0.00313
                ],
                [
                    0.296,
                    0.9581,
                    -0.07497
                ],
                [
                    -0.08958,
                    -0.10038,
                    0.90313
                ]
            ],
            [
                [
                    0.94419,
                    -0.26258,
                    0.00313
                ],
                [
                    -0.296,
                    0.95811,
                    -0.07497
                ],
                [
                    0.08959,
                    -0.10038,
                    0.90312
                ]
            ],
            [
                [
                    0.94419,
                    0.26259,
                    0.00313
                ],
                [
                    0.296,
                    0.95811,
                    0.07497
                ],
                [
                    0.08958,
                    0.10038,
                    0.90313
                ]
            ],
            [
                [
                    0.94419,
                    0.26259,
                    -0.00313
                ],
                [
                    0.296,
                    0.95811,
                    -0.07497
                ],
                [
                    -0.08959,
                    -0.10038,
                    0.90312
                ]
            ],
            [
                [
                    1.11361,
                    0.0,
                    -0.0
                ],
                [
                    -0.0,
                    1.04704,
                    -0.0
                ],
                [
                    -0.0,
                    0.0,
                    1.11757
                ]
            ],
            [
                [
                    1.11361,
                    -0.0,
                    -0.0
                ],
                [
                    -0.0,
                    1.04704,
                    -0.0
                ],
                [
                    -0.0,
                    -0.0,
                    1.11757
                ]
            ],
            [
                [
                    1.12343,
                    -1e-05,
                    0.0
                ],
                [
                    -0.0,
                    1.13461,
                    0.0346
                ],
                [
                    -0.0,
                    0.07904,
                    0.75028
                ]
            ],
            [
                [
                    1.12343,
                    1e-05,
                    -0.0
                ],
                [
                    -0.0,
                    1.13461,
                    0.0346
                ],
                [
                    -0.0,
                    0.07903,
                    0.75028
                ]
            ],
            [
                [
                    1.12343,
                    -1e-05,
                    -0.0
                ],
                [
                    -0.0,
                    1.13461,
                    -0.0346
                ],
                [
                    -0.0,
                    -0.07903,
                    0.75028
                ]
            ],
            [
                [
                    1.12343,
                    1e-05,
                    0.0
                ],
                [
                    -0.0,
                    1.13461,
                    -0.0346
                ],
                [
                    -0.0,
                    -0.07904,
                    0.75028
                ]
            ],
            [
                [
                    0.94419,
                    0.26258,
                    0.00313
                ],
                [
                    0.296,
                    0.9581,
                    0.07497
                ],
                [
                    0.08959,
                    0.10038,
                    0.90312
                ]
            ],
            [
                [
                    0.94419,
                    -0.26258,
                    -0.00313
                ],
                [
                    -0.296,
                    0.95811,
                    0.07497
                ],
                [
                    -0.08958,
                    0.10038,
                    0.90313
                ]
            ],
            [
                [
                    0.94419,
                    -0.26259,
                    0.00313
                ],
                [
                    -0.296,
                    0.9581,
                    -0.07497
                ],
                [
                    0.08958,
                    -0.10038,
                    0.90313
                ]
            ],
            [
                [
                    4.27138,
                    -0.0,
                    -0.0
                ],
                [
                    -0.0,
                    2.89036,
                    -0.0
                ],
                [
                    -0.0,
                    0.0,
                    5.63109
                ]
            ],
            [
                [
                    4.31761,
                    -0.0,
                    -1e-05
                ],
                [
                    -0.0,
                    3.76345,
                    -0.00017
                ],
                [
                    -0.0,
                    0.0,
                    4.23836
                ]
            ],
            [
                [
                    4.31761,
                    -0.0,
                    1e-05
                ],
                [
                    -0.0,
                    3.76345,
                    0.00017
                ],
                [
                    0.0,
                    0.0,
                    4.23845
                ]
            ],
            [
                [
                    -1.47818,
                    -5e-05,
                    -1e-05
                ],
                [
                    -0.0,
                    -1.99323,
                    0.17678
                ],
                [
                    -0.0,
                    0.27161,
                    -2.77672
                ]
            ],
            [
                [
                    -1.56155,
                    -4e-05,
                    1e-05
                ],
                [
                    0.0,
                    -2.33987,
                    -0.62118
                ],
                [
                    -0.0,
                    -0.75981,
                    -2.12969
                ]
            ],
            [
                [
                    -1.56155,
                    4e-05,
                    1e-05
                ],
                [
                    -0.0,
                    -2.33988,
                    0.62107
                ],
                [
                    -0.0,
                    0.75981,
                    -2.12969
                ]
            ],
            [
                [
                    -1.56155,
                    4e-05,
                    -1e-05
                ],
                [
                    0.0,
                    -2.33988,
                    -0.62107
                ],
                [
                    0.0,
                    -0.75984,
                    -2.12971
                ]
            ],
            [
                [
                    -1.56155,
                    -4e-05,
                    -1e-05
                ],
                [
                    0.0,
                    -2.33987,
                    0.62118
                ],
                [
                    -0.0,
                    0.75984,
                    -2.12971
                ]
            ],
            [
                [
                    -2.90908,
                    -0.0,
                    -0.10672
                ],
                [
                    0.0,
                    -1.6779,
                    3e-05
                ],
                [
                    0.07979,
                    0.0,
                    -1.51556
                ]
            ],
            [
                [
                    -2.90908,
                    -0.0,
                    0.10672
                ],
                [
                    0.0,
                    -1.6779,
                    -3e-05
                ],
                [
                    -0.07973,
                    -0.0,
                    -1.51551
                ]
            ],
            [
                [
                    -2.90913,
                    -0.0,
                    -0.10681
                ],
                [
                    -0.0,
                    -1.6779,
                    -3e-05
                ],
                [
                    0.07973,
                    0.0,
                    -1.51551
                ]
            ],
            [
                [
                    -2.90913,
                    0.0,
                    0.10681
                ],
                [
                    -0.0,
                    -1.6779,
                    3e-05
                ],
                [
                    -0.07979,
                    0.0,
                    -1.51556
                ]
            ],
            [
                [
                    -2.76823,
                    -0.0,
                    -0.0
                ],
                [
                    1e-05,
                    -1.52055,
                    -0.0
                ],
                [
                    -0.0,
                    0.0,
                    -1.82614
                ]
            ],
            [
                [
                    -2.7681,
                    -0.0,
                    -0.0
                ],
                [
                    -1e-05,
                    -1.52055,
                    -0.0
                ],
                [
                    0.0,
                    0.0,
                    -1.82614
                ]
            ],
            [
                [
                    -1.47818,
                    5e-05,
                    -1e-05
                ],
                [
                    0.0,
                    -1.99325,
                    -0.17681
                ],
                [
                    -0.0,
                    -0.27161,
                    -2.77672
                ]
            ],
            [
                [
                    -1.47818,
                    -5e-05,
                    1e-05
                ],
                [
                    -0.0,
                    -1.99323,
                    -0.17678
                ],
                [
                    0.0,
                    -0.27156,
                    -2.77674
                ]
            ],
            [
                [
                    -1.47818,
                    5e-05,
                    1e-05
                ],
                [
                    0.0,
                    -1.99325,
                    0.17681
                ],
                [
                    -0.0,
                    0.27156,
                    -2.77674
                ]
            ]
        ]
    },
    "band_gap": 4.365500000000001,
    "is_direct": false,
    "formula": "K2Li14Zr3O14"
}