{
    "mp_id": "mp-18090",
    "nelements": 4,
    "nsites": 32,
    "elements": [
        "As",
        "Ba",
        "O",
        "Ta"
    ],
    "structure": {
        "@module": "pymatgen.core.structure",
        "@class": "Structure",
        "charge": null,
        "lattice": {
            "matrix": [
                [
                    6.72350974,
                    0.0,
                    0.0
                ],
                [
                    0.0,
                    11.12447583,
                    0.0
                ],
                [
                    0.0,
                    0.0,
                    13.45112831
                ]
            ],
            "a": 6.72350974,
            "b": 11.12447583,
            "c": 13.45112831,
            "alpha": 90.0,
            "beta": 90.0,
            "gamma": 90.0,
            "volume": 1006.0841579930956
        },
        "sites": [
            {
                "species": [
                    {
                        "element": "Ba",
                        "occu": 1
                    }
                ],
                "abc": [
                    0.24286942,
                    0.04466197,
                    0.13199841
                ],
                "xyz": [
                    1.6329349109181508,
                    0.4968410057851851,
                    1.7755275496259872
                ],
                "label": "Ba",
                "properties": {}
            },
            {
                "species": [
                    {
                        "element": "Ba",
                        "occu": 1
                    }
                ],
                "abc": [
                    0.72134241,
                    0.75,
                    0.12611849
                ],
                "xyz": [
                    4.849952719510073,
                    8.3433568725,
                    1.696435991253452
                ],
                "label": "Ba",
                "properties": {}
            },
            {
                "species": [
                    {
                        "element": "Ba",
                        "occu": 1
                    }
                ],
                "abc": [
                    0.77865759,
                    0.25,
                    0.62611849
                ],
                "xyz": [
                    5.2353118904899265,
                    2.7811189575,
                    8.42200014625345
                ],
                "label": "Ba",
                "properties": {}
            },
            {
                "species": [
                    {
                        "element": "Ba",
                        "occu": 1
                    }
                ],
                "abc": [
                    0.27865759,
                    0.25,
                    0.87388151
                ],
                "xyz": [
                    1.8735570204899266,
                    2.7811189575,
                    11.754692318746548
                ],
                "label": "Ba",
                "properties": {}
            },
            {
                "species": [
                    {
                        "element": "Ba",
                        "occu": 1
                    }
                ],
                "abc": [
                    0.75713058,
                    0.95533803,
                    0.86800159
                ],
                "xyz": [
                    5.0905748290818496,
                    10.627634824214814,
                    11.675600760374012
                ],
                "label": "Ba",
                "properties": {}
            },
            {
                "species": [
                    {
                        "element": "Ba",
                        "occu": 1
                    }
                ],
                "abc": [
                    0.25713058,
                    0.54466197,
                    0.63199841
                ],
                "xyz": [
                    1.7288199590818492,
                    6.059078920785185,
                    8.501091704625987
                ],
                "label": "Ba",
                "properties": {}
            },
            {
                "species": [
                    {
                        "element": "Ba",
                        "occu": 1
                    }
                ],
                "abc": [
                    0.24286942,
                    0.45533803,
                    0.13199841
                ],
                "xyz": [
                    1.6329349109181508,
                    5.065396909214815,
                    1.7755275496259872
                ],
                "label": "Ba",
                "properties": {}
            },
            {
                "species": [
                    {
                        "element": "Ba",
                        "occu": 1
                    }
                ],
                "abc": [
                    0.74286942,
                    0.04466197,
                    0.36800159
                ],
                "xyz": [
                    4.994689780918151,
                    0.4968410057851851,
                    4.950036605374013
                ],
                "label": "Ba",
                "properties": {}
            },
            {
                "species": [
                    {
                        "element": "Ba",
                        "occu": 1
                    }
                ],
                "abc": [
                    0.25713058,
                    0.95533803,
                    0.63199841
                ],
                "xyz": [
                    1.7288199590818492,
                    10.627634824214814,
                    8.501091704625987
                ],
                "label": "Ba",
                "properties": {}
            },
            {
                "species": [
                    {
                        "element": "Ba",
                        "occu": 1
                    }
                ],
                "abc": [
                    0.74286942,
                    0.45533803,
                    0.36800159
                ],
                "xyz": [
                    4.994689780918151,
                    5.065396909214815,
                    4.950036605374013
                ],
                "label": "Ba",
                "properties": {}
            },
            {
                "species": [
                    {
                        "element": "Ba",
                        "occu": 1
                    }
                ],
                "abc": [
                    0.75713058,
                    0.54466197,
                    0.86800159
                ],
                "xyz": [
                    5.0905748290818496,
                    6.059078920785185,
                    11.675600760374012
                ],
                "label": "Ba",
                "properties": {}
            },
            {
                "species": [
                    {
                        "element": "Ba",
                        "occu": 1
                    }
                ],
                "abc": [
                    0.22134241,
                    0.75,
                    0.37388151
                ],
                "xyz": [
                    1.4881978495100734,
                    8.3433568725,
                    5.029128163746548
                ],
                "label": "Ba",
                "properties": {}
            },
            {
                "species": [
                    {
                        "element": "Ta",
                        "occu": 1
                    }
                ],
                "abc": [
                    0.66317626,
                    0.75,
                    0.54574904
                ],
                "xyz": [
                    4.458872043446772,
                    8.3433568725,
                    7.340940362099323
                ],
                "label": "Ta",
                "properties": {}
            },
            {
                "species": [
                    {
                        "element": "Ta",
                        "occu": 1
                    }
                ],
                "abc": [
                    0.16317626,
                    0.75,
                    0.95425096
                ],
                "xyz": [
                    1.0971171734467724,
                    8.3433568725,
                    12.835752102900678
                ],
                "label": "Ta",
                "properties": {}
            },
            {
                "species": [
                    {
                        "element": "Ta",
                        "occu": 1
                    }
                ],
                "abc": [
                    0.33682374,
                    0.25,
                    0.45425096
                ],
                "xyz": [
                    2.2646376965532276,
                    2.7811189575,
                    6.110187947900677
                ],
                "label": "Ta",
                "properties": {}
            },
            {
                "species": [
                    {
                        "element": "Ta",
                        "occu": 1
                    }
                ],
                "abc": [
                    0.83682374,
                    0.25,
                    0.04574904
                ],
                "xyz": [
                    5.6263925665532275,
                    2.7811189575,
                    0.6153762070993224
                ],
                "label": "Ta",
                "properties": {}
            },
            {
                "species": [
                    {
                        "element": "As",
                        "occu": 1
                    }
                ],
                "abc": [
                    0.27777194,
                    0.25,
                    0.63571152
                ],
                "xyz": [
                    1.8676023440886955,
                    2.7811189575,
                    8.55103722366513
                ],
                "label": "As",
                "properties": {}
            },
            {
                "species": [
                    {
                        "element": "As",
                        "occu": 1
                    }
                ],
                "abc": [
                    0.77777194,
                    0.25,
                    0.86428848
                ],
                "xyz": [
                    5.2293572140886955,
                    2.7811189575,
                    11.625655241334869
                ],
                "label": "As",
                "properties": {}
            },
            {
                "species": [
                    {
                        "element": "As",
                        "occu": 1
                    }
                ],
                "abc": [
                    0.72222806,
                    0.75,
                    0.36428848
                ],
                "xyz": [
                    4.855907395911304,
                    8.3433568725,
                    4.900091086334869
                ],
                "label": "As",
                "properties": {}
            },
            {
                "species": [
                    {
                        "element": "As",
                        "occu": 1
                    }
                ],
                "abc": [
                    0.22222806,
                    0.75,
                    0.13571152
                ],
                "xyz": [
                    1.4941525259113044,
                    8.3433568725,
                    1.8254730686651313
                ],
                "label": "As",
                "properties": {}
            },
            {
                "species": [
                    {
                        "element": "As",
                        "occu": 1
                    }
                ],
                "abc": [
                    0.73491743,
                    0.44691578,
                    0.11647058
                ],
                "xyz": [
                    4.941224498700768,
                    4.971703792655597,
                    1.5666607159201198
                ],
                "label": "As",
                "properties": {}
            },
            {
                "species": [
                    {
                        "element": "As",
                        "occu": 1
                    }
                ],
                "abc": [
                    0.23491743,
                    0.05308422,
                    0.38352942
                ],
                "xyz": [
                    1.5794696287007683,
                    0.5905341223444026,
                    5.1589034390798805
                ],
                "label": "As",
                "properties": {}
            },
            {
                "species": [
                    {
                        "element": "As",
                        "occu": 1
                    }
                ],
                "abc": [
                    0.26508257,
                    0.94691578,
                    0.88352942
                ],
                "xyz": [
                    1.7822852412992318,
                    10.533941707655597,
                    11.88446759407988
                ],
                "label": "As",
                "properties": {}
            },
            {
                "species": [
                    {
                        "element": "As",
                        "occu": 1
                    }
                ],
                "abc": [
                    0.76508257,
                    0.55308422,
                    0.61647058
                ],
                "xyz": [
                    5.1440401112992316,
                    6.152772037344403,
                    8.29222487092012
                ],
                "label": "As",
                "properties": {}
            },
            {
                "species": [
                    {
                        "element": "As",
                        "occu": 1
                    }
                ],
                "abc": [
                    0.26508257,
                    0.55308422,
                    0.88352942
                ],
                "xyz": [
                    1.7822852412992318,
                    6.152772037344403,
                    11.88446759407988
                ],
                "label": "As",
                "properties": {}
            },
            {
                "species": [
                    {
                        "element": "As",
                        "occu": 1
                    }
                ],
                "abc": [
                    0.23491743,
                    0.44691578,
                    0.38352942
                ],
                "xyz": [
                    1.5794696287007683,
                    4.971703792655597,
                    5.1589034390798805
                ],
                "label": "As",
                "properties": {}
            },
            {
                "species": [
                    {
                        "element": "As",
                        "occu": 1
                    }
                ],
                "abc": [
                    0.73491743,
                    0.05308422,
                    0.11647058
                ],
                "xyz": [
                    4.941224498700768,
                    0.5905341223444026,
                    1.5666607159201198
                ],
                "label": "As",
                "properties": {}
            },
            {
                "species": [
                    {
                        "element": "As",
                        "occu": 1
                    }
                ],
                "abc": [
                    0.76508257,
                    0.94691578,
                    0.61647058
                ],
                "xyz": [
                    5.1440401112992316,
                    10.533941707655597,
                    8.29222487092012
                ],
                "label": "As",
                "properties": {}
            },
            {
                "species": [
                    {
                        "element": "O",
                        "occu": 1
                    }
                ],
                "abc": [
                    0.11758194,
                    0.25,
                    0.05525258
                ],
                "xyz": [
                    0.7905633188380956,
                    2.7811189575,
                    0.7432095430385398
                ],
                "label": "O",
                "properties": {}
            },
            {
                "species": [
                    {
                        "element": "O",
                        "occu": 1
                    }
                ],
                "abc": [
                    0.61758194,
                    0.25,
                    0.44474742
                ],
                "xyz": [
                    4.152318188838096,
                    2.7811189575,
                    5.98235461196146
                ],
                "label": "O",
                "properties": {}
            },
            {
                "species": [
                    {
                        "element": "O",
                        "occu": 1
                    }
                ],
                "abc": [
                    0.88241806,
                    0.75,
                    0.94474742
                ],
                "xyz": [
                    5.932946421161905,
                    8.3433568725,
                    12.707918766961459
                ],
                "label": "O",
                "properties": {}
            },
            {
                "species": [
                    {
                        "element": "O",
                        "occu": 1
                    }
                ],
                "abc": [
                    0.38241806,
                    0.75,
                    0.55525258
                ],
                "xyz": [
                    2.5711915511619043,
                    8.3433568725,
                    7.4687736980385395
                ],
                "label": "O",
                "properties": {}
            }
        ]
    },
    "spacegroup": {
        "source": "spglib",
        "symbol": "Pnma",
        "number": 62,
        "point_group": "mmm",
        "crystal_system": "orthorhombic",
        "hall": "-P 2ac 2n"
    },
    "dielectric": {
        "epsilon_ionic": [
            [
                5.12081686,
                9.6e-07,
                2.8e-06
            ],
            [
                9.6e-07,
                8.84201888,
                1e-07
            ],
            [
                2.8e-06,
                1e-07,
                7.11986775
            ]
        ],
        "epsilon_ionic_avg": 7.02756783,
        "epsilon_ionic_eig": [
            5.120816859995831,
            7.119867750003916,
            8.842018880000253
        ],
        "epsilon_electronic": [
            [
                6.83944793,
                -0.0,
                0.0
            ],
            [
                0.0,
                8.74269809,
                0.0
            ],
            [
                0.0,
                0.0,
                8.29562571
            ]
        ],
        "epsilon_electronic_avg": 7.959257243333333,
        "epsilon_electronic_eig": [
            6.83944793,
            8.74269809,
            8.29562571
        ]
    },
    "phonon": {
        "lowest_freq": -0.011864355089239047,
        "frequency": [
            -0.011864355089239047,
            -0.0098004595178179,
            -0.008486967791226577,
            0.5467090926378643,
            0.6832745813291545,
            0.9908930985975265,
            1.2878654030179408,
            1.3065261991082644,
            1.3236454457855293,
            1.3352519329743018,
            1.370385404195523,
            1.4000342965934258,
            1.4603778009129431,
            1.5502463993488227,
            1.638050042844388,
            1.6859455109441386,
            1.7529410726439705,
            1.7686128047821341,
            1.920972102963671,
            1.9588105314775113,
            1.9991837746630854,
            2.0215480121703404,
            2.1632202697543583,
            2.1812343872863136,
            2.252942401665578,
            2.2748825068653664,
            2.353400920365873,
            2.375909002285208,
            2.5106049596373285,
            2.5905335952436173,
            2.676419960054223,
            2.7055969888840252,
            2.74773091139114,
            2.7779499289595195,
            2.808637217099154,
            2.8297986126075894,
            2.8905592003310754,
            2.9034734599467598,
            2.922784653072677,
            2.9522399373040433,
            2.9655081172229063,
            2.9985519606786686,
            3.0253110850042555,
            3.08316552480199,
            3.1783987172262265,
            3.1957417681456444,
            3.1978788862648098,
            3.28836034911751,
            3.2985047948092974,
            3.3609669331637244,
            3.367935448964951,
            3.393134501019746,
            3.410767889412307,
            3.4466408780154785,
            3.4592948568109816,
            3.463168816049776,
            3.4690189029215417,
            3.551381106543679,
            3.557989957897703,
            3.5825549277218385,
            3.719433283182331,
            3.7405913455015183,
            3.824259469737243,
            3.969329230311963,
            3.987772407844292,
            4.028799630836089,
            4.053197657797943,
            4.074250415115457,
            4.075107016649046,
            4.092834310162618,
            4.120421778993812,
            4.198380746514437,
            7.172430871054803,
            7.196947883339291,
            7.211678830288981,
            7.295822917290815,
            7.401596399428413,
            7.401780945468508,
            7.442891206706241,
            7.48040208191265,
            7.485356743252556,
            7.4917914346289765,
            7.526380394832232,
            7.5853516568267505,
            8.726646953938635,
            8.777235649066998,
            8.823010376174292,
            9.114148161657544,
            9.669164503771112,
            9.718768711732064,
            9.734266965923204,
            9.899821973742373,
            18.647169723595134,
            18.671674738928044,
            18.72627097652573,
            18.901311425506936
        ]
    },
    "born_effective_charge": {
        "avg_abs_trace": 2.533254583333333,
        "tensors": [
            [
                [
                    2.65526,
                    -0.3539,
                    0.24122
                ],
                [
                    -0.10402,
                    2.32815,
                    0.41911
                ],
                [
                    0.13268,
                    0.12609,
                    2.4219
                ]
            ],
            [
                [
                    2.74964,
                    -0.0,
                    -0.39882
                ],
                [
                    0.00025,
                    3.49665,
                    0.00012
                ],
                [
                    -0.10823,
                    0.0,
                    2.8943
                ]
            ],
            [
                [
                    2.74985,
                    -0.0,
                    0.40214
                ],
                [
                    -0.00025,
                    3.49665,
                    0.00012
                ],
                [
                    0.10823,
                    0.0,
                    2.8943
                ]
            ],
            [
                [
                    2.74985,
                    -0.0,
                    -0.40214
                ],
                [
                    -0.00025,
                    3.49665,
                    -0.00012
                ],
                [
                    -0.10854,
                    0.0,
                    2.89569
                ]
            ],
            [
                [
                    2.65666,
                    -0.35598,
                    0.24275
                ],
                [
                    -0.10476,
                    2.32743,
                    0.41894
                ],
                [
                    0.13307,
                    0.12544,
                    2.42345
                ]
            ],
            [
                [
                    2.65666,
                    0.35598,
                    -0.24275
                ],
                [
                    0.10402,
                    2.32815,
                    0.41911
                ],
                [
                    -0.13268,
                    0.12609,
                    2.4219
                ]
            ],
            [
                [
                    2.65526,
                    0.3539,
                    0.24122
                ],
                [
                    0.10476,
                    2.32743,
                    -0.41894
                ],
                [
                    0.13268,
                    -0.12609,
                    2.4219
                ]
            ],
            [
                [
                    2.65526,
                    -0.3539,
                    -0.24122
                ],
                [
                    -0.10402,
                    2.32815,
                    -0.41911
                ],
                [
                    -0.13307,
                    -0.12544,
                    2.42345
                ]
            ],
            [
                [
                    2.65666,
                    -0.35598,
                    -0.24275
                ],
                [
                    -0.10476,
                    2.32743,
                    -0.41894
                ],
                [
                    -0.13268,
                    -0.12609,
                    2.4219
                ]
            ],
            [
                [
                    2.65526,
                    0.3539,
                    -0.24122
                ],
                [
                    0.10476,
                    2.32743,
                    0.41894
                ],
                [
                    -0.13307,
                    0.12544,
                    2.42345
                ]
            ],
            [
                [
                    2.65666,
                    0.35598,
                    0.24275
                ],
                [
                    0.10402,
                    2.32815,
                    -0.41911
                ],
                [
                    0.13307,
                    -0.12544,
                    2.42345
                ]
            ],
            [
                [
                    2.74964,
                    -0.0,
                    0.39882
                ],
                [
                    0.00025,
                    3.49665,
                    -0.00012
                ],
                [
                    0.10854,
                    0.0,
                    2.89569
                ]
            ],
            [
                [
                    1.11367,
                    -0.0,
                    0.21885
                ],
                [
                    -0.00044,
                    3.28029,
                    0.00063
                ],
                [
                    -0.07786,
                    0.0,
                    2.04969
                ]
            ],
            [
                [
                    1.11367,
                    -0.0,
                    -0.21885
                ],
                [
                    -0.00044,
                    3.28029,
                    -0.00063
                ],
                [
                    0.07751,
                    0.0,
                    2.04905
                ]
            ],
            [
                [
                    1.11665,
                    -0.0,
                    0.22023
                ],
                [
                    0.00044,
                    3.28029,
                    -0.00063
                ],
                [
                    -0.07751,
                    0.0,
                    2.04905
                ]
            ],
            [
                [
                    1.11665,
                    -0.0,
                    -0.22023
                ],
                [
                    0.00044,
                    3.28029,
                    0.00063
                ],
                [
                    0.07786,
                    0.0,
                    2.04969
                ]
            ],
            [
                [
                    -1.76359,
                    -0.0,
                    0.10167
                ],
                [
                    0.00054,
                    -1.95862,
                    -0.00013
                ],
                [
                    0.13581,
                    0.0,
                    -4.03429
                ]
            ],
            [
                [
                    -1.76359,
                    -0.0,
                    -0.10167
                ],
                [
                    0.00054,
                    -1.95862,
                    0.00013
                ],
                [
                    -0.13625,
                    0.0,
                    -4.03509
                ]
            ],
            [
                [
                    -1.76264,
                    -0.0,
                    0.10365
                ],
                [
                    -0.00054,
                    -1.95862,
                    0.00013
                ],
                [
                    0.13625,
                    0.0,
                    -4.03509
                ]
            ],
            [
                [
                    -1.76264,
                    -0.0,
                    -0.10365
                ],
                [
                    -0.00054,
                    -1.95862,
                    -0.00013
                ],
                [
                    -0.13581,
                    0.0,
                    -4.03429
                ]
            ],
            [
                [
                    -1.98118,
                    0.34686,
                    0.1016
                ],
                [
                    0.49232,
                    -3.83822,
                    -0.88516
                ],
                [
                    0.16343,
                    -1.11787,
                    -2.21035
                ]
            ],
            [
                [
                    -1.98118,
                    -0.34686,
                    -0.1016
                ],
                [
                    -0.49309,
                    -3.83803,
                    -0.88512
                ],
                [
                    -0.16331,
                    -1.11786,
                    -2.21082
                ]
            ],
            [
                [
                    -1.98151,
                    -0.3435,
                    0.09747
                ],
                [
                    -0.49232,
                    -3.83822,
                    0.88516
                ],
                [
                    0.16331,
                    1.11786,
                    -2.21082
                ]
            ],
            [
                [
                    -1.98151,
                    0.3435,
                    -0.09747
                ],
                [
                    0.49309,
                    -3.83803,
                    0.88512
                ],
                [
                    -0.16343,
                    1.11787,
                    -2.21035
                ]
            ],
            [
                [
                    -1.98151,
                    0.3435,
                    0.09747
                ],
                [
                    0.49309,
                    -3.83803,
                    -0.88512
                ],
                [
                    0.16331,
                    -1.11786,
                    -2.21082
                ]
            ],
            [
                [
                    -1.98118,
                    0.34686,
                    -0.1016
                ],
                [
                    0.49232,
                    -3.83822,
                    0.88516
                ],
                [
                    -0.16331,
                    1.11786,
                    -2.21082
                ]
            ],
            [
                [
                    -1.98118,
                    -0.34686,
                    0.1016
                ],
                [
                    -0.49309,
                    -3.83803,
                    0.88512
                ],
                [
                    0.16343,
                    1.11787,
                    -2.21035
                ]
            ],
            [
                [
                    -1.98151,
                    -0.3435,
                    -0.09747
                ],
                [
                    -0.49232,
                    -3.83822,
                    -0.88516
                ],
                [
                    -0.16343,
                    -1.11787,
                    -2.21035
                ]
            ],
            [
                [
                    -3.45172,
                    -0.0,
                    0.04643
                ],
                [
                    -0.00044,
                    -1.79764,
                    -0.00089
                ],
                [
                    -0.21046,
                    0.0,
                    -1.334
                ]
            ],
            [
                [
                    -3.45172,
                    -0.0,
                    -0.04643
                ],
                [
                    -0.00044,
                    -1.79764,
                    0.00089
                ],
                [
                    0.20998,
                    0.0,
                    -1.33372
                ]
            ],
            [
                [
                    -3.45031,
                    -0.0,
                    0.04692
                ],
                [
                    0.00044,
                    -1.79764,
                    0.00089
                ],
                [
                    -0.20998,
                    0.0,
                    -1.33372
                ]
            ],
            [
                [
                    -3.45031,
                    -0.0,
                    -0.04692
                ],
                [
                    0.00044,
                    -1.79764,
                    -0.00089
                ],
                [
                    0.21046,
                    0.0,
                    -1.334
                ]
            ]
        ]
    },
    "band_gap": 0.9888000000000003,
    "is_direct": false,
    "formula": "Ba3TaAs3O"
}