{
    "mp_id": "mp-17020",
    "nelements": 4,
    "nsites": 30,
    "elements": [
        "Ge",
        "O",
        "Ti",
        "Tl"
    ],
    "structure": {
        "@module": "pymatgen.core.structure",
        "@class": "Structure",
        "charge": null,
        "lattice": {
            "matrix": [
                [
                    6.99607132,
                    1.24e-06,
                    0.0
                ],
                [
                    -3.49803623,
                    6.05877461,
                    0.0
                ],
                [
                    0.0,
                    0.0,
                    10.47528436
                ]
            ],
            "a": 6.99607132000011,
            "b": 6.996070843064218,
            "c": 10.47528436,
            "alpha": 90.0,
            "beta": 90.0,
            "gamma": 119.99999749016914,
            "volume": 444.0224107738958
        },
        "sites": [
            {
                "species": [
                    {
                        "element": "Ti",
                        "occu": 1
                    }
                ],
                "abc": [
                    0.0,
                    0.0,
                    0.5
                ],
                "xyz": [
                    0.0,
                    0.0,
                    5.23764218
                ],
                "label": "Ti",
                "properties": {}
            },
            {
                "species": [
                    {
                        "element": "Ti",
                        "occu": 1
                    }
                ],
                "abc": [
                    0.0,
                    0.0,
                    0.0
                ],
                "xyz": [
                    0.0,
                    0.0,
                    0.0
                ],
                "label": "Ti",
                "properties": {}
            },
            {
                "species": [
                    {
                        "element": "Tl",
                        "occu": 1
                    }
                ],
                "abc": [
                    0.333333,
                    0.666667,
                    0.44702568
                ],
                "xyz": [
                    -3.878035849780304e-06,
                    4.03918550625779,
                    4.682721114222365
                ],
                "label": "Tl",
                "properties": {}
            },
            {
                "species": [
                    {
                        "element": "Tl",
                        "occu": 1
                    }
                ],
                "abc": [
                    0.666667,
                    0.333333,
                    0.94702568
                ],
                "xyz": [
                    3.498038968035851,
                    2.0195903437422102,
                    9.920363294222364
                ],
                "label": "Tl",
                "properties": {}
            },
            {
                "species": [
                    {
                        "element": "Tl",
                        "occu": 1
                    }
                ],
                "abc": [
                    0.666667,
                    0.333333,
                    0.55297432
                ],
                "xyz": [
                    3.498038968035851,
                    2.0195903437422102,
                    5.792563245777635
                ],
                "label": "Tl",
                "properties": {}
            },
            {
                "species": [
                    {
                        "element": "Tl",
                        "occu": 1
                    }
                ],
                "abc": [
                    0.333333,
                    0.666667,
                    0.05297432
                ],
                "xyz": [
                    -3.878035849780304e-06,
                    4.03918550625779,
                    0.5549210657776352
                ],
                "label": "Tl",
                "properties": {}
            },
            {
                "species": [
                    {
                        "element": "Ge",
                        "occu": 1
                    }
                ],
                "abc": [
                    0.24676625,
                    0.88152358,
                    0.75
                ],
                "xyz": [
                    -1.357207136070353,
                    5.340952990610454,
                    7.85646327
                ],
                "label": "Ge",
                "properties": {}
            },
            {
                "species": [
                    {
                        "element": "Ge",
                        "occu": 1
                    }
                ],
                "abc": [
                    0.63475733,
                    0.75323375,
                    0.75
                ],
                "xyz": [
                    1.805968604414014,
                    4.563674306994177,
                    7.85646327
                ],
                "label": "Ge",
                "properties": {}
            },
            {
                "species": [
                    {
                        "element": "Ge",
                        "occu": 1
                    }
                ],
                "abc": [
                    0.11847642,
                    0.36524267,
                    0.75
                ],
                "xyz": [
                    -0.44876260834365955,
                    2.2129231623953696,
                    7.85646327
                ],
                "label": "Ge",
                "properties": {}
            },
            {
                "species": [
                    {
                        "element": "Ge",
                        "occu": 1
                    }
                ],
                "abc": [
                    0.36524267,
                    0.24676625,
                    0.25
                ],
                "xyz": [
                    1.692066485585987,
                    1.4951015430058234,
                    2.61882109
                ],
                "label": "Ge",
                "properties": {}
            },
            {
                "species": [
                    {
                        "element": "Ge",
                        "occu": 1
                    }
                ],
                "abc": [
                    0.88152358,
                    0.63475733,
                    0.25
                ],
                "xyz": [
                    3.9467976983436603,
                    3.845852687604631,
                    2.61882109
                ],
                "label": "Ge",
                "properties": {}
            },
            {
                "species": [
                    {
                        "element": "Ge",
                        "occu": 1
                    }
                ],
                "abc": [
                    0.75323375,
                    0.11847642,
                    0.25
                ],
                "xyz": [
                    4.855242226070354,
                    0.7178228593895463,
                    2.61882109
                ],
                "label": "Ge",
                "properties": {}
            },
            {
                "species": [
                    {
                        "element": "O",
                        "occu": 1
                    }
                ],
                "abc": [
                    0.22944969,
                    0.23730218,
                    0.39326113
                ],
                "xyz": [
                    0.7751547724939096,
                    1.4377607075992656,
                    4.119522164484927
                ],
                "label": "O",
                "properties": {}
            },
            {
                "species": [
                    {
                        "element": "O",
                        "occu": 1
                    }
                ],
                "abc": [
                    0.99214651,
                    0.22944969,
                    0.89326113
                ],
                "xyz": [
                    6.138504415266825,
                    1.3901851863060435,
                    9.357164344484927
                ],
                "label": "O",
                "properties": {}
            },
            {
                "species": [
                    {
                        "element": "O",
                        "occu": 1
                    }
                ],
                "abc": [
                    0.23730218,
                    0.00785349,
                    0.89326113
                ],
                "xyz": [
                    1.632711183119535,
                    0.0475828200665921,
                    9.357164344484927
                ],
                "label": "O",
                "properties": {}
            },
            {
                "species": [
                    {
                        "element": "O",
                        "occu": 1
                    }
                ],
                "abc": [
                    0.76269782,
                    0.99214651,
                    0.39326113
                ],
                "xyz": [
                    1.8653239068804655,
                    6.011193029933408,
                    4.119522164484927
                ],
                "label": "O",
                "properties": {}
            },
            {
                "species": [
                    {
                        "element": "O",
                        "occu": 1
                    }
                ],
                "abc": [
                    0.00785349,
                    0.77055031,
                    0.39326113
                ],
                "xyz": [
                    -2.6404693252668245,
                    4.668590663693957,
                    4.119522164484927
                ],
                "label": "O",
                "properties": {}
            },
            {
                "species": [
                    {
                        "element": "O",
                        "occu": 1
                    }
                ],
                "abc": [
                    0.77055031,
                    0.76269782,
                    0.89326113
                ],
                "xyz": [
                    2.722880317506091,
                    4.6210151424007355,
                    9.357164344484927
                ],
                "label": "O",
                "properties": {}
            },
            {
                "species": [
                    {
                        "element": "O",
                        "occu": 1
                    }
                ],
                "abc": [
                    0.77055031,
                    0.76269782,
                    0.60673887
                ],
                "xyz": [
                    2.722880317506091,
                    4.6210151424007355,
                    6.355762195515074
                ],
                "label": "O",
                "properties": {}
            },
            {
                "species": [
                    {
                        "element": "O",
                        "occu": 1
                    }
                ],
                "abc": [
                    0.00785349,
                    0.77055031,
                    0.10673887
                ],
                "xyz": [
                    -2.6404693252668245,
                    4.668590663693957,
                    1.1181200155150732
                ],
                "label": "O",
                "properties": {}
            },
            {
                "species": [
                    {
                        "element": "O",
                        "occu": 1
                    }
                ],
                "abc": [
                    0.76269782,
                    0.99214651,
                    0.10673887
                ],
                "xyz": [
                    1.8653239068804655,
                    6.011193029933408,
                    1.1181200155150732
                ],
                "label": "O",
                "properties": {}
            },
            {
                "species": [
                    {
                        "element": "O",
                        "occu": 1
                    }
                ],
                "abc": [
                    0.23730218,
                    0.00785349,
                    0.60673887
                ],
                "xyz": [
                    1.632711183119535,
                    0.0475828200665921,
                    6.355762195515074
                ],
                "label": "O",
                "properties": {}
            },
            {
                "species": [
                    {
                        "element": "O",
                        "occu": 1
                    }
                ],
                "abc": [
                    0.99214651,
                    0.22944969,
                    0.60673887
                ],
                "xyz": [
                    6.138504415266825,
                    1.3901851863060435,
                    6.355762195515074
                ],
                "label": "O",
                "properties": {}
            },
            {
                "species": [
                    {
                        "element": "O",
                        "occu": 1
                    }
                ],
                "abc": [
                    0.22944969,
                    0.23730218,
                    0.10673887
                ],
                "xyz": [
                    0.7751547724939096,
                    1.4377607075992656,
                    1.1181200155150732
                ],
                "label": "O",
                "properties": {}
            },
            {
                "species": [
                    {
                        "element": "O",
                        "occu": 1
                    }
                ],
                "abc": [
                    0.46901885,
                    0.05841575,
                    0.25
                ],
                "xyz": [
                    3.0769489151217595,
                    0.35392844450748157,
                    2.61882109
                ],
                "label": "O",
                "properties": {}
            },
            {
                "species": [
                    {
                        "element": "O",
                        "occu": 1
                    }
                ],
                "abc": [
                    0.41060311,
                    0.46901885,
                    0.75
                ],
                "xyz": [
                    1.23196371192087,
                    2.841680009139255,
                    7.85646327
                ],
                "label": "O",
                "properties": {}
            },
            {
                "species": [
                    {
                        "element": "O",
                        "occu": 1
                    }
                ],
                "abc": [
                    0.05841575,
                    0.58939689,
                    0.75
                ],
                "xyz": [
                    -1.6530509218580343,
                    3.571022984780493,
                    7.85646327
                ],
                "label": "O",
                "properties": {}
            },
            {
                "species": [
                    {
                        "element": "O",
                        "occu": 1
                    }
                ],
                "abc": [
                    0.94158425,
                    0.41060311,
                    0.25
                ],
                "xyz": [
                    5.151086011858035,
                    2.487752865219507,
                    2.61882109
                ],
                "label": "O",
                "properties": {}
            },
            {
                "species": [
                    {
                        "element": "O",
                        "occu": 1
                    }
                ],
                "abc": [
                    0.58939689,
                    0.53098115,
                    0.25
                ],
                "xyz": [
                    2.26607137807913,
                    3.2170958408607455,
                    2.61882109
                ],
                "label": "O",
                "properties": {}
            },
            {
                "species": [
                    {
                        "element": "O",
                        "occu": 1
                    }
                ],
                "abc": [
                    0.53098115,
                    0.94158425,
                    0.75
                ],
                "xyz": [
                    0.4210861748782406,
                    5.704847405492519,
                    7.85646327
                ],
                "label": "O",
                "properties": {}
            }
        ]
    },
    "spacegroup": {
        "source": "spglib",
        "symbol": "P6_3/m",
        "number": 176,
        "point_group": "6/m",
        "crystal_system": "hexagonal",
        "hall": "-P 6c"
    },
    "dielectric": {
        "epsilon_ionic": [
            [
                22.8379357,
                0.00027663,
                0.0
            ],
            [
                0.00027663,
                22.84100323,
                -1e-08
            ],
            [
                0.0,
                -1e-08,
                9.90974074
            ]
        ],
        "epsilon_ionic_avg": 18.529559889999998,
        "epsilon_ionic_eig": [
            22.83791095313539,
            22.841027976864606,
            9.90974074
        ],
        "epsilon_electronic": [
            [
                4.63518147,
                -1.9e-07,
                -0.0
            ],
            [
                -5.7e-07,
                4.63518114,
                0.0
            ],
            [
                -0.0,
                0.0,
                4.74820433
            ]
        ],
        "epsilon_electronic_avg": 4.672855646666666,
        "epsilon_electronic_eig": [
            4.635181673137203,
            4.635180936862797,
            4.74820433
        ]
    },
    "phonon": {
        "lowest_freq": -0.08145192489546646,
        "frequency": [
            -0.08145192489546646,
            -0.04175232281767089,
            -0.04175231907138612,
            0.7073360300389747,
            0.7073360835948764,
            0.7402333961684187,
            0.7402334622016784,
            1.1754974305761212,
            1.1754975345321634,
            1.2259796176046318,
            1.3058692177708193,
            1.3356294395144925,
            1.3356295593696514,
            1.389346904016139,
            1.6970239157495635,
            2.139461793495218,
            2.1394618734592954,
            2.990335902013429,
            3.006358802960603,
            3.00635890051388,
            3.1190893663215657,
            3.1190896209793526,
            4.093662216891974,
            4.140438258127186,
            4.28504967348977,
            4.285049756191305,
            4.500715925220874,
            4.771919361119185,
            4.771919522450579,
            4.803204971765292,
            4.803204974309428,
            5.074320152578503,
            5.074320297070841,
            5.507045685834925,
            5.5070457524042284,
            5.907622921502013,
            6.144479893082546,
            6.422424848479308,
            6.422425114858584,
            6.517901938226911,
            7.219108036737553,
            7.2191082567925555,
            7.250377164905785,
            7.677217729704767,
            8.098837208590647,
            8.098837419830959,
            8.433705183268318,
            8.5978137162696,
            8.597813844185907,
            8.68964106946378,
            8.689641252279255,
            9.941450734593335,
            9.995771842210234,
            10.706780512014797,
            10.706780751694815,
            11.093233696552682,
            11.093233982961657,
            11.407621154977154,
            12.483795535983367,
            12.48379613309374,
            13.003791175526905,
            13.351813329305605,
            13.473153529791421,
            13.473154273522654,
            13.53230061592841,
            13.682194120631294,
            14.079562271987255,
            14.384382512641563,
            15.100893181627212,
            15.100893642884936,
            15.289341877809523,
            15.289342349367018,
            21.871915966632162,
            22.166159942655675,
            22.16616038368855,
            22.19110142499267,
            22.19110197566414,
            22.77436137671752,
            22.7743616450018,
            22.823709244715744,
            22.82370945887912,
            23.33479648475875,
            23.407533428478988,
            24.914072148001033,
            25.73501397347427,
            25.735014923153674,
            26.04294727715536,
            26.042948215605698,
            26.39698412084525,
            27.225024953089935
        ]
    },
    "born_effective_charge": {
        "avg_abs_trace": 2.8050141111111118,
        "tensors": [
            [
                [
                    5.82028,
                    0.67857,
                    -0.0003
                ],
                [
                    -0.67854,
                    5.82043,
                    0.00061
                ],
                [
                    -0.0,
                    -0.0,
                    6.25959
                ]
            ],
            [
                [
                    5.82028,
                    0.67857,
                    0.0003
                ],
                [
                    -0.67854,
                    5.82043,
                    -0.00061
                ],
                [
                    -0.0,
                    -0.0,
                    6.25959
                ]
            ],
            [
                [
                    2.21355,
                    0.00307,
                    -2e-05
                ],
                [
                    -0.00305,
                    2.21381,
                    1e-05
                ],
                [
                    -0.0,
                    -0.0,
                    1.13446
                ]
            ],
            [
                [
                    2.21359,
                    0.00335,
                    -7e-05
                ],
                [
                    -0.00324,
                    2.21378,
                    0.00022
                ],
                [
                    -0.0,
                    -0.0,
                    1.13446
                ]
            ],
            [
                [
                    2.21359,
                    0.00335,
                    7e-05
                ],
                [
                    -0.00324,
                    2.21378,
                    -0.00022
                ],
                [
                    -0.0,
                    -0.0,
                    1.13452
                ]
            ],
            [
                [
                    2.21355,
                    0.00307,
                    2e-05
                ],
                [
                    -0.00305,
                    2.21381,
                    -1e-05
                ],
                [
                    -0.0,
                    -0.0,
                    1.13452
                ]
            ],
            [
                [
                    3.55638,
                    -0.78635,
                    0.0
                ],
                [
                    -0.3023,
                    3.53773,
                    0.0
                ],
                [
                    2e-05,
                    -3e-05,
                    4.268
                ]
            ],
            [
                [
                    4.01512,
                    0.03834,
                    0.0
                ],
                [
                    0.52205,
                    3.08085,
                    0.0
                ],
                [
                    -4e-05,
                    -1e-05,
                    4.268
                ]
            ],
            [
                [
                    3.07134,
                    0.02206,
                    0.0
                ],
                [
                    0.50568,
                    4.02366,
                    0.0
                ],
                [
                    1e-05,
                    4e-05,
                    4.268
                ]
            ],
            [
                [
                    4.01464,
                    0.0385,
                    0.0
                ],
                [
                    0.52189,
                    3.08058,
                    0.0
                ],
                [
                    4e-05,
                    1e-05,
                    4.268
                ]
            ],
            [
                [
                    3.07111,
                    0.02185,
                    0.0
                ],
                [
                    0.50603,
                    4.02381,
                    0.0
                ],
                [
                    -1e-05,
                    -4e-05,
                    4.268
                ]
            ],
            [
                [
                    3.55636,
                    -0.78612,
                    0.0
                ],
                [
                    -0.30265,
                    3.53808,
                    0.0
                ],
                [
                    -2e-05,
                    3e-05,
                    4.268
                ]
            ],
            [
                [
                    -2.0242,
                    -0.64215,
                    0.88856
                ],
                [
                    -0.5921,
                    -2.51447,
                    0.81277
                ],
                [
                    0.89141,
                    0.81844,
                    -2.78247
                ]
            ],
            [
                [
                    -1.85739,
                    0.49601,
                    -0.25967
                ],
                [
                    0.54572,
                    -2.68117,
                    1.17607
                ],
                [
                    -0.26309,
                    1.1812,
                    -2.78247
                ]
            ],
            [
                [
                    -2.92614,
                    0.07139,
                    1.14843
                ],
                [
                    0.12105,
                    -1.6121,
                    -0.36285
                ],
                [
                    1.15449,
                    -0.36276,
                    -2.78247
                ]
            ],
            [
                [
                    -2.92644,
                    0.07118,
                    -1.14811
                ],
                [
                    0.12115,
                    -1.61245,
                    0.36314
                ],
                [
                    -1.15449,
                    0.36276,
                    -2.78247
                ]
            ],
            [
                [
                    -1.85723,
                    0.49623,
                    0.2598
                ],
                [
                    0.54565,
                    -2.68136,
                    -1.17629
                ],
                [
                    0.26309,
                    -1.1812,
                    -2.78247
                ]
            ],
            [
                [
                    -2.02435,
                    -0.64187,
                    -0.88895
                ],
                [
                    -0.59227,
                    -2.51431,
                    -0.81283
                ],
                [
                    -0.89141,
                    -0.81844,
                    -2.78247
                ]
            ],
            [
                [
                    -2.02435,
                    -0.64187,
                    0.88895
                ],
                [
                    -0.59227,
                    -2.51431,
                    0.81283
                ],
                [
                    0.89147,
                    0.81854,
                    -2.78252
                ]
            ],
            [
                [
                    -1.85723,
                    0.49623,
                    -0.2598
                ],
                [
                    0.54565,
                    -2.68136,
                    1.17629
                ],
                [
                    -0.26315,
                    1.1813,
                    -2.78252
                ]
            ],
            [
                [
                    -2.92644,
                    0.07118,
                    1.14811
                ],
                [
                    0.12115,
                    -1.61245,
                    -0.36314
                ],
                [
                    1.15461,
                    -0.36276,
                    -2.78252
                ]
            ],
            [
                [
                    -2.92614,
                    0.07139,
                    -1.14843
                ],
                [
                    0.12105,
                    -1.6121,
                    0.36285
                ],
                [
                    -1.15461,
                    0.36276,
                    -2.78252
                ]
            ],
            [
                [
                    -1.85739,
                    0.49601,
                    0.25967
                ],
                [
                    0.54572,
                    -2.68117,
                    -1.17607
                ],
                [
                    0.26315,
                    -1.1813,
                    -2.78252
                ]
            ],
            [
                [
                    -2.0242,
                    -0.64215,
                    -0.88856
                ],
                [
                    -0.5921,
                    -2.51447,
                    -0.81277
                ],
                [
                    -0.89147,
                    -0.81854,
                    -2.78252
                ]
            ],
            [
                [
                    -3.1856,
                    0.50271,
                    0.0
                ],
                [
                    0.3759,
                    -1.66373,
                    0.0
                ],
                [
                    1e-05,
                    1e-05,
                    -1.54586
                ]
            ],
            [
                [
                    -2.42453,
                    -0.81542,
                    0.0
                ],
                [
                    -0.94179,
                    -2.42513,
                    0.0
                ],
                [
                    -1e-05,
                    2e-05,
                    -1.54586
                ]
            ],
            [
                [
                    -1.66397,
                    0.50304,
                    0.0
                ],
                [
                    0.37613,
                    -3.18563,
                    0.0
                ],
                [
                    2e-05,
                    -0.0,
                    -1.54586
                ]
            ],
            [
                [
                    -1.6637,
                    0.5027,
                    0.0
                ],
                [
                    0.37625,
                    -3.18568,
                    0.0
                ],
                [
                    -2e-05,
                    0.0,
                    -1.54586
                ]
            ],
            [
                [
                    -2.42472,
                    -0.81539,
                    0.0
                ],
                [
                    -0.94189,
                    -2.42493,
                    0.0
                ],
                [
                    1e-05,
                    -2e-05,
                    -1.54586
                ]
            ],
            [
                [
                    -3.18575,
                    0.50251,
                    0.0
                ],
                [
                    0.37595,
                    -1.6639,
                    0.0
                ],
                [
                    -1e-05,
                    -1e-05,
                    -1.54586
                ]
            ]
        ]
    },
    "band_gap": 2.4612,
    "is_direct": true,
    "formula": "TiTl2(GeO3)3"
}