{
    "mp_id": "mp-1105143",
    "nelements": 4,
    "nsites": 20,
    "elements": [
        "Ge",
        "In",
        "Na",
        "O"
    ],
    "structure": {
        "@module": "pymatgen.core.structure",
        "@class": "Structure",
        "charge": null,
        "lattice": {
            "matrix": [
                [
                    5.17524554,
                    -4.57583877,
                    0.00204845
                ],
                [
                    5.17524554,
                    4.57583877,
                    0.00204845
                ],
                [
                    -1.62423347,
                    0.0,
                    5.39811719
                ]
            ],
            "a": 6.908072889342758,
            "b": 6.908072889342758,
            "c": 5.637180462078692,
            "alpha": 102.44898631922241,
            "beta": 102.44898631922241,
            "gamma": 82.9648151606702,
            "volume": 255.69703833298382
        },
        "sites": [
            {
                "species": [
                    {
                        "element": "Na",
                        "occu": 1
                    }
                ],
                "abc": [
                    0.30436018,
                    0.69563982,
                    0.75
                ],
                "xyz": [
                    3.9570704374999996,
                    1.790432546623643,
                    4.0506363425
                ],
                "label": "Na",
                "properties": {}
            },
            {
                "species": [
                    {
                        "element": "Na",
                        "occu": 1
                    }
                ],
                "abc": [
                    0.69563982,
                    0.30436018,
                    0.25
                ],
                "xyz": [
                    4.7691871725,
                    -1.790432546623643,
                    1.3515777475
                ],
                "label": "Na",
                "properties": {}
            },
            {
                "species": [
                    {
                        "element": "In",
                        "occu": 1
                    }
                ],
                "abc": [
                    0.89911013,
                    0.10088987,
                    0.75
                ],
                "xyz": [
                    3.9570704374999996,
                    -3.65252721270748,
                    4.0506363425
                ],
                "label": "In",
                "properties": {}
            },
            {
                "species": [
                    {
                        "element": "In",
                        "occu": 1
                    }
                ],
                "abc": [
                    0.10088987,
                    0.89911013,
                    0.25
                ],
                "xyz": [
                    4.7691871725,
                    3.65252721270748,
                    1.3515777475
                ],
                "label": "In",
                "properties": {}
            },
            {
                "species": [
                    {
                        "element": "Ge",
                        "occu": 1
                    }
                ],
                "abc": [
                    0.38214865,
                    0.19917942,
                    0.74661892
                ],
                "xyz": [
                    1.795832062345055,
                    -0.837237696351047,
                    4.031527247916226
                ],
                "label": "Ge",
                "properties": {}
            },
            {
                "species": [
                    {
                        "element": "Ge",
                        "occu": 1
                    }
                ],
                "abc": [
                    0.80082058,
                    0.61785135,
                    0.75338108
                ],
                "xyz": [
                    6.118308812654944,
                    -0.8372376963510471,
                    4.069745437083774
                ],
                "label": "Ge",
                "properties": {}
            },
            {
                "species": [
                    {
                        "element": "Ge",
                        "occu": 1
                    }
                ],
                "abc": [
                    0.61785135,
                    0.80082058,
                    0.25338108
                ],
                "xyz": [
                    6.930425547654944,
                    0.8372376963510471,
                    1.3706868420837737
                ],
                "label": "Ge",
                "properties": {}
            },
            {
                "species": [
                    {
                        "element": "Ge",
                        "occu": 1
                    }
                ],
                "abc": [
                    0.19917942,
                    0.38214865,
                    0.24661892
                ],
                "xyz": [
                    2.6079487973450552,
                    0.837237696351047,
                    1.3324686529162264
                ],
                "label": "Ge",
                "properties": {}
            },
            {
                "species": [
                    {
                        "element": "O",
                        "occu": 1
                    }
                ],
                "abc": [
                    0.62074538,
                    0.09396907,
                    0.84999179
                ],
                "xyz": [
                    2.318237655192841,
                    -2.4104434624155386,
                    4.589819349772973
                ],
                "label": "O",
                "properties": {}
            },
            {
                "species": [
                    {
                        "element": "O",
                        "occu": 1
                    }
                ],
                "abc": [
                    0.90603093,
                    0.37925462,
                    0.65000821
                ],
                "xyz": [
                    5.595903219807157,
                    -2.4104434624155386,
                    3.5114533352270274
                ],
                "label": "O",
                "properties": {}
            },
            {
                "species": [
                    {
                        "element": "O",
                        "occu": 1
                    }
                ],
                "abc": [
                    0.37925462,
                    0.90603093,
                    0.15000821
                ],
                "xyz": [
                    6.408019954807157,
                    2.4104434624155386,
                    0.8123947402270274
                ],
                "label": "O",
                "properties": {}
            },
            {
                "species": [
                    {
                        "element": "O",
                        "occu": 1
                    }
                ],
                "abc": [
                    0.09396907,
                    0.62074538,
                    0.34999179
                ],
                "xyz": [
                    3.1303543901928412,
                    2.4104434624155386,
                    1.8907607547729728
                ],
                "label": "O",
                "properties": {}
            },
            {
                "species": [
                    {
                        "element": "O",
                        "occu": 1
                    }
                ],
                "abc": [
                    0.1964909,
                    0.02514124,
                    0.64444898
                ],
                "xyz": [
                    0.100265141032295,
                    -0.7840684174543181,
                    3.4792651193731485
                ],
                "label": "O",
                "properties": {}
            },
            {
                "species": [
                    {
                        "element": "O",
                        "occu": 1
                    }
                ],
                "abc": [
                    0.97485876,
                    0.8035091,
                    0.85555102
                ],
                "xyz": [
                    7.813875733967706,
                    -0.7840684174543182,
                    4.622007565626851
                ],
                "label": "O",
                "properties": {}
            },
            {
                "species": [
                    {
                        "element": "O",
                        "occu": 1
                    }
                ],
                "abc": [
                    0.8035091,
                    0.97485876,
                    0.35555102
                ],
                "xyz": [
                    8.625992468967706,
                    0.7840684174543182,
                    1.9229489706268506
                ],
                "label": "O",
                "properties": {}
            },
            {
                "species": [
                    {
                        "element": "O",
                        "occu": 1
                    }
                ],
                "abc": [
                    0.02514124,
                    0.1964909,
                    0.14444898
                ],
                "xyz": [
                    0.9123818760322949,
                    0.7840684174543181,
                    0.7802065243731492
                ],
                "label": "O",
                "properties": {}
            },
            {
                "species": [
                    {
                        "element": "O",
                        "occu": 1
                    }
                ],
                "abc": [
                    0.39041847,
                    0.33294977,
                    0.50756817
                ],
                "xyz": [
                    2.9191990478169996,
                    -0.2629675055214993,
                    2.7413942472450703
                ],
                "label": "O",
                "properties": {}
            },
            {
                "species": [
                    {
                        "element": "O",
                        "occu": 1
                    }
                ],
                "abc": [
                    0.66705023,
                    0.60958153,
                    0.99243183
                ],
                "xyz": [
                    4.994941827182999,
                    -0.2629675055214986,
                    5.359878437754929
                ],
                "label": "O",
                "properties": {}
            },
            {
                "species": [
                    {
                        "element": "O",
                        "occu": 1
                    }
                ],
                "abc": [
                    0.60958153,
                    0.66705023,
                    0.49243183
                ],
                "xyz": [
                    5.807058562182999,
                    0.2629675055214986,
                    2.6608198427549294
                ],
                "label": "O",
                "properties": {}
            },
            {
                "species": [
                    {
                        "element": "O",
                        "occu": 1
                    }
                ],
                "abc": [
                    0.33294977,
                    0.39041847,
                    0.00756817
                ],
                "xyz": [
                    3.7313157828169996,
                    0.2629675055214993,
                    0.04233565224507029
                ],
                "label": "O",
                "properties": {}
            }
        ]
    },
    "spacegroup": {
        "source": "spglib",
        "symbol": "C2/c",
        "number": 15,
        "point_group": "2/m",
        "crystal_system": "monoclinic",
        "hall": "-C 2yc"
    },
    "dielectric": {
        "epsilon_ionic": [
            [
                5.0589288,
                8e-08,
                0.21458572
            ],
            [
                8e-08,
                6.82763703,
                1e-07
            ],
            [
                0.21458572,
                1e-07,
                5.05478092
            ]
        ],
        "epsilon_ionic_avg": 5.647115583333336,
        "epsilon_ionic_eig": [
            4.842259118068711,
            5.271450601931286,
            6.827637030000011
        ],
        "epsilon_electronic": [
            [
                3.57365383,
                0.0,
                -0.01067966
            ],
            [
                0.0,
                3.54989333,
                0.0
            ],
            [
                -0.01068012,
                0.0,
                3.59558036
            ]
        ],
        "epsilon_electronic_avg": 3.573042506666667,
        "epsilon_electronic_eig": [
            3.5693117616217482,
            3.599922428378252,
            3.54989333
        ]
    },
    "phonon": {
        "lowest_freq": -0.14087636790230934,
        "frequency": [
            -0.14087636790230934,
            -0.10946308820321682,
            -0.014912370481821353,
            2.0379670345007646,
            2.3600734406139137,
            2.8030341684194062,
            2.978385024397088,
            3.2281366750393965,
            3.343930207512479,
            3.382360427612029,
            3.4464855575428692,
            3.697271269362988,
            4.440805510093394,
            4.485977150275275,
            4.943623262834314,
            4.994718346239364,
            5.0065087902519,
            5.167905468281889,
            5.393668811383285,
            5.8555928477258705,
            6.069683407462948,
            6.505247982308282,
            6.776538098447637,
            6.781245354773025,
            7.141463041345014,
            7.2379092090914385,
            7.622572946434521,
            7.637798527812696,
            7.809594725804175,
            8.067546555653339,
            8.079900460927977,
            9.200470590420302,
            9.879419538272028,
            9.910823840316935,
            10.406890629214084,
            10.51026355142234,
            11.487683884699665,
            11.621546232694541,
            11.894778532408582,
            12.800657757491456,
            12.80951768348993,
            13.000751857758486,
            13.996328818906491,
            14.389751162040893,
            14.432637642473743,
            14.78442149573219,
            15.164374716026481,
            15.435264902017353,
            21.265823951778263,
            21.35896554552493,
            21.886705656343768,
            22.404082259929833,
            22.480788946411952,
            22.961913570562995,
            23.772525711446804,
            24.25972797178959,
            24.848731161234753,
            25.29606495701585,
            25.61846967046585,
            25.692344023519976
        ]
    },
    "born_effective_charge": {
        "avg_abs_trace": 2.262264666666667,
        "tensors": [
            [
                [
                    1.17918,
                    0.0,
                    -0.00249
                ],
                [
                    -0.0,
                    1.08342,
                    0.0
                ],
                [
                    0.03244,
                    0.0,
                    1.10722
                ]
            ],
            [
                [
                    1.17918,
                    -0.0,
                    -0.00249
                ],
                [
                    -0.0,
                    1.08343,
                    0.0
                ],
                [
                    0.03244,
                    -0.0,
                    1.10722
                ]
            ],
            [
                [
                    3.70365,
                    4e-05,
                    0.08494
                ],
                [
                    -0.0,
                    3.48351,
                    0.0
                ],
                [
                    0.11786,
                    5e-05,
                    3.28943
                ]
            ],
            [
                [
                    3.70365,
                    -4e-05,
                    0.08494
                ],
                [
                    -0.0,
                    3.48346,
                    0.0
                ],
                [
                    0.11786,
                    -5e-05,
                    3.28943
                ]
            ],
            [
                [
                    3.09487,
                    -0.61761,
                    -0.0275
                ],
                [
                    0.01318,
                    3.33741,
                    -0.31219
                ],
                [
                    -0.07239,
                    0.18541,
                    3.61159
                ]
            ],
            [
                [
                    3.09487,
                    0.61765,
                    -0.02786
                ],
                [
                    -0.01318,
                    3.33741,
                    0.31219
                ],
                [
                    -0.07234,
                    -0.18541,
                    3.61145
                ]
            ],
            [
                [
                    3.09487,
                    -0.61765,
                    -0.02786
                ],
                [
                    0.0132,
                    3.3374,
                    -0.31221
                ],
                [
                    -0.07234,
                    0.18541,
                    3.61145
                ]
            ],
            [
                [
                    3.09487,
                    0.61761,
                    -0.0275
                ],
                [
                    -0.0132,
                    3.3374,
                    0.31221
                ],
                [
                    -0.07239,
                    -0.18541,
                    3.61159
                ]
            ],
            [
                [
                    -1.75062,
                    0.74734,
                    -0.00398
                ],
                [
                    0.62071,
                    -2.34684,
                    0.19135
                ],
                [
                    0.02072,
                    0.0813,
                    -1.36999
                ]
            ],
            [
                [
                    -1.75049,
                    -0.74725,
                    -0.00405
                ],
                [
                    -0.62071,
                    -2.34684,
                    -0.19135
                ],
                [
                    0.02079,
                    -0.0814,
                    -1.36994
                ]
            ],
            [
                [
                    -1.75049,
                    0.74725,
                    -0.00405
                ],
                [
                    0.62075,
                    -2.34684,
                    0.19147
                ],
                [
                    0.02079,
                    0.0814,
                    -1.36994
                ]
            ],
            [
                [
                    -1.75062,
                    -0.74734,
                    -0.00398
                ],
                [
                    -0.62075,
                    -2.34684,
                    -0.19147
                ],
                [
                    0.02072,
                    -0.0813,
                    -1.36999
                ]
            ],
            [
                [
                    -2.3454,
                    0.37126,
                    -0.36298
                ],
                [
                    0.24727,
                    -1.60473,
                    -0.19469
                ],
                [
                    -0.36097,
                    -0.1567,
                    -1.95642
                ]
            ],
            [
                [
                    -2.34538,
                    -0.37116,
                    -0.36289
                ],
                [
                    -0.24727,
                    -1.60473,
                    0.19469
                ],
                [
                    -0.36091,
                    0.15658,
                    -1.95629
                ]
            ],
            [
                [
                    -2.34538,
                    0.37116,
                    -0.36289
                ],
                [
                    0.24735,
                    -1.60472,
                    -0.1948
                ],
                [
                    -0.36091,
                    -0.15658,
                    -1.95629
                ]
            ],
            [
                [
                    -2.3454,
                    -0.37126,
                    -0.36298
                ],
                [
                    -0.24735,
                    -1.60472,
                    0.1948
                ],
                [
                    -0.36097,
                    0.1567,
                    -1.95642
                ]
            ],
            [
                [
                    -1.44028,
                    -0.21837,
                    0.35354
                ],
                [
                    -0.17224,
                    -1.66925,
                    0.75207
                ],
                [
                    0.33748,
                    0.83112,
                    -2.48356
                ]
            ],
            [
                [
                    -1.44039,
                    0.21849,
                    0.35327
                ],
                [
                    0.17224,
                    -1.66925,
                    -0.75207
                ],
                [
                    0.3373,
                    -0.83067,
                    -2.48348
                ]
            ],
            [
                [
                    -1.44039,
                    -0.21849,
                    0.35327
                ],
                [
                    -0.17212,
                    -1.66934,
                    0.75198
                ],
                [
                    0.3373,
                    0.83067,
                    -2.48348
                ]
            ],
            [
                [
                    -1.44028,
                    0.21837,
                    0.35354
                ],
                [
                    0.17212,
                    -1.66934,
                    -0.75198
                ],
                [
                    0.33748,
                    -0.83112,
                    -2.48356
                ]
            ]
        ]
    },
    "band_gap": 2.2306999999999997,
    "is_direct": false,
    "formula": "NaIn(GeO3)2"
}