{
    "mp_id": "mp-1205833",
    "nelements": 4,
    "nsites": 10,
    "elements": [
        "Ba",
        "Nb",
        "O",
        "Rh"
    ],
    "structure": {
        "@module": "pymatgen.core.structure",
        "@class": "Structure",
        "charge": null,
        "lattice": {
            "matrix": [
                [
                    0.0,
                    4.052645,
                    4.052645
                ],
                [
                    4.052645,
                    0.0,
                    4.052645
                ],
                [
                    4.052645,
                    4.052645,
                    0.0
                ]
            ],
            "a": 5.731305522483512,
            "b": 5.731305522483512,
            "c": 5.731305522483512,
            "alpha": 60.00000000000001,
            "beta": 60.00000000000001,
            "gamma": 60.00000000000001,
            "volume": 133.12072771541648
        },
        "sites": [
            {
                "species": [
                    {
                        "element": "Ba",
                        "occu": 1
                    }
                ],
                "abc": [
                    0.25,
                    0.25,
                    0.25
                ],
                "xyz": [
                    2.0263225,
                    2.0263225,
                    2.0263225
                ],
                "label": "Ba",
                "properties": {}
            },
            {
                "species": [
                    {
                        "element": "Ba",
                        "occu": 1
                    }
                ],
                "abc": [
                    0.75,
                    0.75,
                    0.75
                ],
                "xyz": [
                    6.0789675,
                    6.0789675,
                    6.0789675
                ],
                "label": "Ba",
                "properties": {}
            },
            {
                "species": [
                    {
                        "element": "Nb",
                        "occu": 1
                    }
                ],
                "abc": [
                    0.5,
                    0.5,
                    0.5
                ],
                "xyz": [
                    4.052645,
                    4.052645,
                    4.052645
                ],
                "label": "Nb",
                "properties": {}
            },
            {
                "species": [
                    {
                        "element": "Rh",
                        "occu": 1
                    }
                ],
                "abc": [
                    0.0,
                    0.0,
                    0.0
                ],
                "xyz": [
                    0.0,
                    0.0,
                    0.0
                ],
                "label": "Rh",
                "properties": {}
            },
            {
                "species": [
                    {
                        "element": "O",
                        "occu": 1
                    }
                ],
                "abc": [
                    0.748642,
                    0.251358,
                    0.251358
                ],
                "xyz": [
                    2.0373294838200002,
                    4.052645,
                    4.052645
                ],
                "label": "O",
                "properties": {}
            },
            {
                "species": [
                    {
                        "element": "O",
                        "occu": 1
                    }
                ],
                "abc": [
                    0.251358,
                    0.748642,
                    0.748642
                ],
                "xyz": [
                    6.06796051618,
                    4.052645,
                    4.052645
                ],
                "label": "O",
                "properties": {}
            },
            {
                "species": [
                    {
                        "element": "O",
                        "occu": 1
                    }
                ],
                "abc": [
                    0.251358,
                    0.748642,
                    0.251358
                ],
                "xyz": [
                    4.052645,
                    2.0373294838200002,
                    4.052645
                ],
                "label": "O",
                "properties": {}
            },
            {
                "species": [
                    {
                        "element": "O",
                        "occu": 1
                    }
                ],
                "abc": [
                    0.748642,
                    0.251358,
                    0.748642
                ],
                "xyz": [
                    4.052645,
                    6.06796051618,
                    4.052645
                ],
                "label": "O",
                "properties": {}
            },
            {
                "species": [
                    {
                        "element": "O",
                        "occu": 1
                    }
                ],
                "abc": [
                    0.251358,
                    0.251358,
                    0.748642
                ],
                "xyz": [
                    4.052645,
                    4.052645,
                    2.0373294838200002
                ],
                "label": "O",
                "properties": {}
            },
            {
                "species": [
                    {
                        "element": "O",
                        "occu": 1
                    }
                ],
                "abc": [
                    0.748642,
                    0.748642,
                    0.251358
                ],
                "xyz": [
                    4.052645,
                    4.052645,
                    6.06796051618
                ],
                "label": "O",
                "properties": {}
            }
        ]
    },
    "spacegroup": {
        "source": "spglib",
        "symbol": "Fm-3m",
        "number": 225,
        "point_group": "m-3m",
        "crystal_system": "cubic",
        "hall": "-F 4 2 3"
    },
    "dielectric": {
        "epsilon_ionic": [
            [
                13.77107082,
                -1e-08,
                -0.0
            ],
            [
                -1e-08,
                13.77069876,
                0.0
            ],
            [
                -0.0,
                0.0,
                13.77082125
            ]
        ],
        "epsilon_ionic_avg": 13.77086361,
        "epsilon_ionic_eig": [
            13.771070820000268,
            13.770698759999732,
            13.77082125
        ],
        "epsilon_electronic": [
            [
                6.6775891,
                -0.0,
                0.0
            ],
            [
                0.0,
                6.6775891,
                0.0
            ],
            [
                0.0,
                0.0,
                6.6775891
            ]
        ],
        "epsilon_electronic_avg": 6.6775891,
        "epsilon_electronic_eig": [
            6.6775891,
            6.6775891,
            6.6775891
        ]
    },
    "phonon": {
        "lowest_freq": -0.03323791514621132,
        "frequency": [
            -0.03323791514621132,
            -0.03323791514621132,
            -0.03323791514621132,
            3.658485166076224,
            3.658485166076224,
            3.658485166076224,
            4.107464683271004,
            4.107464683271004,
            4.107464683271004,
            4.155223504563703,
            4.155223504563703,
            4.155223504563703,
            8.88111944966895,
            8.88111944966895,
            8.88111944966895,
            9.067911052242241,
            9.067911052242241,
            9.067911052242241,
            10.15550144427981,
            10.15550144427981,
            10.15550144427981,
            11.099124050042212,
            11.099124050042212,
            11.099124050042212,
            16.57038340795936,
            16.57038340795936,
            16.57038340795936,
            20.012674295651966,
            20.012674295651966,
            23.325135332398464
        ]
    },
    "born_effective_charge": {
        "avg_abs_trace": 3.3582449999999993,
        "tensors": [
            [
                [
                    2.84122,
                    0.0,
                    0.0
                ],
                [
                    0.0,
                    2.84113,
                    -0.0
                ],
                [
                    -0.0,
                    -0.0,
                    2.84118
                ]
            ],
            [
                [
                    2.84122,
                    0.0,
                    0.0
                ],
                [
                    0.0,
                    2.84113,
                    0.0
                ],
                [
                    -0.0,
                    0.0,
                    2.84118
                ]
            ],
            [
                [
                    8.17096,
                    0.0,
                    0.0
                ],
                [
                    0.0,
                    8.17105,
                    0.0
                ],
                [
                    -0.0,
                    0.0,
                    8.17101
                ]
            ],
            [
                [
                    2.93796,
                    0.0,
                    0.0
                ],
                [
                    0.0,
                    2.93783,
                    0.0
                ],
                [
                    -0.0,
                    0.0,
                    2.93781
                ]
            ],
            [
                [
                    -5.11402,
                    0.0,
                    0.0
                ],
                [
                    -4e-05,
                    -1.6407,
                    0.0
                ],
                [
                    8e-05,
                    0.0,
                    -1.64074
                ]
            ],
            [
                [
                    -5.11441,
                    0.0,
                    0.0
                ],
                [
                    4e-05,
                    -1.6407,
                    -0.0
                ],
                [
                    -8e-05,
                    0.0,
                    -1.64074
                ]
            ],
            [
                [
                    -1.64073,
                    -0.00025,
                    0.0
                ],
                [
                    0.0,
                    -5.11381,
                    0.0
                ],
                [
                    -0.0,
                    8e-05,
                    -1.64074
                ]
            ],
            [
                [
                    -1.64073,
                    0.00025,
                    -0.0
                ],
                [
                    0.0,
                    -5.11455,
                    0.0
                ],
                [
                    -0.0,
                    -8e-05,
                    -1.64074
                ]
            ],
            [
                [
                    -1.64073,
                    0.0,
                    -0.00025
                ],
                [
                    0.0,
                    -1.6407,
                    -4e-05
                ],
                [
                    -0.0,
                    0.0,
                    -5.11394
                ]
            ],
            [
                [
                    -1.64073,
                    0.0,
                    0.00025
                ],
                [
                    0.0,
                    -1.6407,
                    4e-05
                ],
                [
                    -0.0,
                    0.0,
                    -5.11426
                ]
            ]
        ]
    },
    "band_gap": 1.6875999999999998,
    "is_direct": false,
    "formula": "Ba2NbRhO6"
}