{
    "mp_id": "mp-19363",
    "nelements": 3,
    "nsites": 12,
    "elements": [
        "Hg",
        "Mo",
        "O"
    ],
    "structure": {
        "@module": "pymatgen.core.structure",
        "@class": "Structure",
        "charge": null,
        "lattice": {
            "matrix": [
                [
                    5.68010126,
                    -3.03666939,
                    0.00102972
                ],
                [
                    5.68010126,
                    3.03666939,
                    0.00102972
                ],
                [
                    -2.02763192,
                    0.0,
                    4.75823995
                ]
            ],
            "a": 6.440878229584832,
            "b": 6.440878229584832,
            "c": 5.172246960923163,
            "alpha": 110.21659577611022,
            "beta": 110.21659577611022,
            "gamma": 56.259288212564826,
            "volume": 164.15853698384893
        },
        "sites": [
            {
                "species": [
                    {
                        "element": "Hg",
                        "occu": 1
                    }
                ],
                "abc": [
                    0.0,
                    0.5,
                    0.5
                ],
                "xyz": [
                    1.8262346699999998,
                    1.518334695,
                    2.379634835
                ],
                "label": "Hg",
                "properties": {}
            },
            {
                "species": [
                    {
                        "element": "Hg",
                        "occu": 1
                    }
                ],
                "abc": [
                    0.5,
                    0.0,
                    0.0
                ],
                "xyz": [
                    2.84005063,
                    -1.518334695,
                    0.00051486
                ],
                "label": "Hg",
                "properties": {}
            },
            {
                "species": [
                    {
                        "element": "Mo",
                        "occu": 1
                    }
                ],
                "abc": [
                    0.18804286,
                    0.81195714,
                    0.25
                ],
                "xyz": [
                    5.17319328,
                    1.894621396059889,
                    1.1905897075
                ],
                "label": "Mo",
                "properties": {}
            },
            {
                "species": [
                    {
                        "element": "Mo",
                        "occu": 1
                    }
                ],
                "abc": [
                    0.81195714,
                    0.18804286,
                    0.75
                ],
                "xyz": [
                    4.15937732,
                    -1.894621396059889,
                    3.5697096825
                ],
                "label": "Mo",
                "properties": {}
            },
            {
                "species": [
                    {
                        "element": "O",
                        "occu": 1
                    }
                ],
                "abc": [
                    0.24927338,
                    0.51742648,
                    0.02690734
                ],
                "xyz": [
                    4.30037465936153,
                    0.8142923106036092,
                    0.1288210663160722
                ],
                "label": "O",
                "properties": {}
            },
            {
                "species": [
                    {
                        "element": "O",
                        "occu": 1
                    }
                ],
                "abc": [
                    0.48257352,
                    0.75072662,
                    0.47309266
                ],
                "xyz": [
                    6.046011900638469,
                    0.8142923106036093,
                    2.252358348683928
                ],
                "label": "O",
                "properties": {}
            },
            {
                "species": [
                    {
                        "element": "O",
                        "occu": 1
                    }
                ],
                "abc": [
                    0.75072662,
                    0.48257352,
                    0.97309266
                ],
                "xyz": [
                    5.032195940638469,
                    -0.8142923106036093,
                    4.631478323683928
                ],
                "label": "O",
                "properties": {}
            },
            {
                "species": [
                    {
                        "element": "O",
                        "occu": 1
                    }
                ],
                "abc": [
                    0.51742648,
                    0.24927338,
                    0.52690734
                ],
                "xyz": [
                    3.2865586993615303,
                    -0.8142923106036092,
                    2.507941041316072
                ],
                "label": "O",
                "properties": {}
            },
            {
                "species": [
                    {
                        "element": "O",
                        "occu": 1
                    }
                ],
                "abc": [
                    0.81258435,
                    0.99323809,
                    0.96948811
                ],
                "xyz": [
                    8.291489278883802,
                    0.5485856824470186,
                    4.614916547534912
                ],
                "label": "O",
                "properties": {}
            },
            {
                "species": [
                    {
                        "element": "O",
                        "occu": 1
                    }
                ],
                "abc": [
                    0.00676191,
                    0.18741565,
                    0.53051189
                ],
                "xyz": [
                    0.027265361116196596,
                    0.5485856824470186,
                    2.524502817465089
                ],
                "label": "O",
                "properties": {}
            },
            {
                "species": [
                    {
                        "element": "O",
                        "occu": 1
                    }
                ],
                "abc": [
                    0.18741565,
                    0.00676191,
                    0.03051189
                ],
                "xyz": [
                    1.0410813211161967,
                    -0.5485856824470186,
                    0.1453828424650887
                ],
                "label": "O",
                "properties": {}
            },
            {
                "species": [
                    {
                        "element": "O",
                        "occu": 1
                    }
                ],
                "abc": [
                    0.99323809,
                    0.81258435,
                    0.46948811
                ],
                "xyz": [
                    9.305305238883802,
                    -0.5485856824470186,
                    2.235796572534911
                ],
                "label": "O",
                "properties": {}
            }
        ]
    },
    "spacegroup": {
        "source": "spglib",
        "symbol": "C2/c",
        "number": 15,
        "point_group": "2/m",
        "crystal_system": "monoclinic",
        "hall": "-C 2yc"
    },
    "dielectric": {
        "epsilon_ionic": [
            [
                7.61238466,
                1.2e-07,
                1.44825872
            ],
            [
                1.2e-07,
                5.19908162,
                -2.8e-07
            ],
            [
                1.44825872,
                -2.8e-07,
                11.72204346
            ]
        ],
        "epsilon_ionic_avg": 8.177836580000003,
        "epsilon_ionic_eig": [
            12.181130761714765,
            7.1532973582852675,
            5.199081619999973
        ],
        "epsilon_electronic": [
            [
                6.71467847,
                0.0,
                0.07530936
            ],
            [
                0.0,
                5.0171745,
                0.0
            ],
            [
                0.07530797,
                0.0,
                5.51975949
            ]
        ],
        "epsilon_electronic_avg": 5.7505374866666665,
        "epsilon_electronic_eig": [
            6.719406025040541,
            5.515031934959459,
            5.0171745
        ]
    },
    "phonon": {
        "lowest_freq": -0.05104307960595696,
        "frequency": [
            -0.05104307960595696,
            -0.02173008204728914,
            -0.01434977925011106,
            1.782056765029744,
            1.8012095520324605,
            2.2727293503311556,
            2.6762787360381872,
            3.063426436845645,
            4.113165815612188,
            4.325795690476403,
            4.326167786445112,
            4.532110743200194,
            4.765185079835581,
            5.73225423401543,
            6.1413986027727345,
            6.213673226000568,
            6.673867280364183,
            7.594585511974877,
            7.7055886634815405,
            8.233716205763045,
            8.967270980367962,
            9.568495213521391,
            10.489391996482393,
            10.668907806440703,
            14.369538287407357,
            14.466836338108253,
            15.20900982408404,
            15.529748680642061,
            18.09191626309875,
            19.844771314207886,
            20.26068231098935,
            20.808622928484294,
            24.61424204631032,
            24.986576594030375,
            25.736733785438226,
            26.33148098590116
        ]
    },
    "born_effective_charge": {
        "avg_abs_trace": 2.7189208333333332,
        "tensors": [
            [
                [
                    3.44918,
                    0.45678,
                    0.33326
                ],
                [
                    0.37575,
                    2.1256,
                    0.01693
                ],
                [
                    0.15349,
                    -0.68447,
                    2.24448
                ]
            ],
            [
                [
                    3.44918,
                    -0.45678,
                    0.33326
                ],
                [
                    -0.37575,
                    2.1256,
                    -0.01693
                ],
                [
                    0.15349,
                    0.68447,
                    2.24448
                ]
            ],
            [
                [
                    6.01946,
                    0.00018,
                    -0.75823
                ],
                [
                    -0.0,
                    4.71985,
                    0.0
                ],
                [
                    0.02163,
                    -0.0001,
                    5.911
                ]
            ],
            [
                [
                    6.01946,
                    -0.00018,
                    -0.75823
                ],
                [
                    -0.0,
                    4.72128,
                    0.0
                ],
                [
                    0.02163,
                    0.0001,
                    5.911
                ]
            ],
            [
                [
                    -1.52839,
                    -0.8789,
                    -0.76664
                ],
                [
                    -0.99859,
                    -1.7446,
                    -0.83466
                ],
                [
                    -0.89449,
                    -0.81225,
                    -2.07331
                ]
            ],
            [
                [
                    -1.52828,
                    0.8795,
                    -0.76658
                ],
                [
                    0.99859,
                    -1.7446,
                    0.83466
                ],
                [
                    -0.89462,
                    0.81189,
                    -2.07339
                ]
            ],
            [
                [
                    -1.52828,
                    -0.8795,
                    -0.76658
                ],
                [
                    -0.99894,
                    -1.74514,
                    -0.83531
                ],
                [
                    -0.89462,
                    -0.81189,
                    -2.07339
                ]
            ],
            [
                [
                    -1.52839,
                    0.8789,
                    -0.76664
                ],
                [
                    0.99894,
                    -1.74514,
                    0.83531
                ],
                [
                    -0.89449,
                    0.81225,
                    -2.07331
                ]
            ],
            [
                [
                    -3.20612,
                    -0.03105,
                    0.97926
                ],
                [
                    0.22262,
                    -1.67809,
                    0.63814
                ],
                [
                    0.80714,
                    0.8592,
                    -2.00473
                ]
            ],
            [
                [
                    -3.20585,
                    0.03118,
                    0.97893
                ],
                [
                    -0.22262,
                    -1.67809,
                    -0.63814
                ],
                [
                    0.80685,
                    -0.85997,
                    -2.00405
                ]
            ],
            [
                [
                    -3.20585,
                    -0.03118,
                    0.97893
                ],
                [
                    0.22277,
                    -1.67834,
                    0.63756
                ],
                [
                    0.80685,
                    0.85997,
                    -2.00405
                ]
            ],
            [
                [
                    -3.20612,
                    0.03105,
                    0.97926
                ],
                [
                    -0.22277,
                    -1.67834,
                    -0.63756
                ],
                [
                    0.80714,
                    -0.8592,
                    -2.00473
                ]
            ]
        ]
    },
    "band_gap": 1.9535,
    "is_direct": false,
    "formula": "HgMoO4"
}