{
    "mp_id": "mp-1228103",
    "nelements": 5,
    "nsites": 29,
    "elements": [
        "Ba",
        "Na",
        "Nb",
        "O",
        "V"
    ],
    "structure": {
        "@module": "pymatgen.core.structure",
        "@class": "Structure",
        "charge": null,
        "lattice": {
            "matrix": [
                [
                    5.10569073,
                    -2.93534838,
                    -0.0001168
                ],
                [
                    5.10569073,
                    2.93534838,
                    -0.0001168
                ],
                [
                    -0.01817321,
                    0.0,
                    14.77122527
                ]
            ],
            "a": 5.8893418949844305,
            "b": 5.8893418949844305,
            "c": 14.771236449351433,
            "alpha": 90.06224813881636,
            "beta": 90.06224813881636,
            "gamma": 59.790655270459986,
            "volume": 442.7521328617051
        },
        "sites": [
            {
                "species": [
                    {
                        "element": "Ba",
                        "occu": 1
                    }
                ],
                "abc": [
                    0.32614678,
                    0.34219492,
                    0.65529309
                ],
                "xyz": [
                    3.4004372432263223,
                    0.047106881751013296,
                    9.679403787953824
                ],
                "label": "Ba",
                "properties": {}
            },
            {
                "species": [
                    {
                        "element": "Ba",
                        "occu": 1
                    }
                ],
                "abc": [
                    0.65780508,
                    0.67385322,
                    0.34470691
                ],
                "xyz": [
                    6.792771006773679,
                    0.047106881751013185,
                    5.091587882046175
                ],
                "label": "Ba",
                "properties": {}
            },
            {
                "species": [
                    {
                        "element": "Ba",
                        "occu": 1
                    }
                ],
                "abc": [
                    0.66787628,
                    0.66954456,
                    0.81443798
                ],
                "xyz": [
                    6.813656232454297,
                    0.004896982995386212,
                    12.030090660269643
                ],
                "label": "Ba",
                "properties": {}
            },
            {
                "species": [
                    {
                        "element": "Ba",
                        "occu": 1
                    }
                ],
                "abc": [
                    0.33045544,
                    0.33212372,
                    0.18556202
                ],
                "xyz": [
                    3.3795520175457026,
                    0.004896982995386545,
                    2.7409010097303574
                ],
                "label": "Ba",
                "properties": {}
            },
            {
                "species": [
                    {
                        "element": "Ba",
                        "occu": 1
                    }
                ],
                "abc": [
                    0.99357696,
                    0.00642304,
                    0.5
                ],
                "xyz": [
                    5.096604125,
                    -2.8976406598826494,
                    7.385495835
                ],
                "label": "Ba",
                "properties": {}
            },
            {
                "species": [
                    {
                        "element": "Ba",
                        "occu": 1
                    }
                ],
                "abc": [
                    0.04548524,
                    0.95451476,
                    0.0
                ],
                "xyz": [
                    5.10569073,
                    2.668318328904178,
                    -0.0001168
                ],
                "label": "Ba",
                "properties": {}
            },
            {
                "species": [
                    {
                        "element": "Na",
                        "occu": 1
                    }
                ],
                "abc": [
                    0.99720346,
                    0.00482505,
                    0.749107
                ],
                "xyz": [
                    5.102433995879243,
                    -2.912976358140476,
                    11.065111211403922
                ],
                "label": "Na",
                "properties": {}
            },
            {
                "species": [
                    {
                        "element": "Na",
                        "occu": 1
                    }
                ],
                "abc": [
                    0.99517495,
                    0.00279654,
                    0.250893
                ],
                "xyz": [
                    5.090774254120758,
                    -2.912976358140476,
                    3.7058804585960776
                ],
                "label": "Na",
                "properties": {}
            },
            {
                "species": [
                    {
                        "element": "Nb",
                        "occu": 1
                    }
                ],
                "abc": [
                    0.65986403,
                    0.67397806,
                    0.58610658
                ],
                "xyz": [
                    6.799533756236104,
                    0.041429595095771266,
                    8.657356532653164
                ],
                "label": "Nb",
                "properties": {}
            },
            {
                "species": [
                    {
                        "element": "Nb",
                        "occu": 1
                    }
                ],
                "abc": [
                    0.32602194,
                    0.34013597,
                    0.41389342
                ],
                "xyz": [
                    3.3936744937638963,
                    0.04142959509577138,
                    6.113635137346836
                ],
                "label": "Nb",
                "properties": {}
            },
            {
                "species": [
                    {
                        "element": "V",
                        "occu": 1
                    }
                ],
                "abc": [
                    0.340631,
                    0.32932363,
                    0.89528118
                ],
                "xyz": [
                    3.404311011018392,
                    -0.03319107021156065,
                    13.224321739070634
                ],
                "label": "V",
                "properties": {}
            },
            {
                "species": [
                    {
                        "element": "V",
                        "occu": 1
                    }
                ],
                "abc": [
                    0.67067637,
                    0.659369,
                    0.10471882
                ],
                "xyz": [
                    6.788897238981608,
                    -0.03319107021156076,
                    1.5466699309293657
                ],
                "label": "V",
                "properties": {}
            },
            {
                "species": [
                    {
                        "element": "O",
                        "occu": 1
                    }
                ],
                "abc": [
                    0.1826992,
                    0.17042881,
                    0.853221
                ],
                "xyz": [
                    1.787456642750937,
                    -0.036017869408468295,
                    12.603078350743102
                ],
                "label": "O",
                "properties": {}
            },
            {
                "species": [
                    {
                        "element": "O",
                        "occu": 1
                    }
                ],
                "abc": [
                    0.2060494,
                    0.630018,
                    0.84077572
                ],
                "xyz": [
                    4.253421980112741,
                    1.244495543180868,
                    12.419189908994126
                ],
                "label": "O",
                "properties": {}
            },
            {
                "species": [
                    {
                        "element": "O",
                        "occu": 1
                    }
                ],
                "abc": [
                    0.66891207,
                    0.14868908,
                    0.86510503
                ],
                "xyz": [
                    4.158696877010094,
                    -1.5270357109352564,
                    12.77856578452579
                ],
                "label": "O",
                "properties": {}
            },
            {
                "species": [
                    {
                        "element": "O",
                        "occu": 1
                    }
                ],
                "abc": [
                    0.82957119,
                    0.8173008,
                    0.146779
                ],
                "xyz": [
                    8.405751607249062,
                    -0.03601786940846807,
                    2.167913319256898
                ],
                "label": "O",
                "properties": {}
            },
            {
                "species": [
                    {
                        "element": "O",
                        "occu": 1
                    }
                ],
                "abc": [
                    0.85131092,
                    0.33108793,
                    0.13489497
                ],
                "xyz": [
                    6.034511372989907,
                    -1.5270357109352566,
                    1.9924258854742118
                ],
                "label": "O",
                "properties": {}
            },
            {
                "species": [
                    {
                        "element": "O",
                        "occu": 1
                    }
                ],
                "abc": [
                    0.369982,
                    0.7939506,
                    0.15922428
                ],
                "xyz": [
                    5.939786269887259,
                    1.2444955431808682,
                    2.3518017610058757
                ],
                "label": "O",
                "properties": {}
            },
            {
                "species": [
                    {
                        "element": "O",
                        "occu": 1
                    }
                ],
                "abc": [
                    0.47816592,
                    0.52183408,
                    0.5
                ],
                "xyz": [
                    5.096604125,
                    0.12818126271358077,
                    7.385495835
                ],
                "label": "O",
                "properties": {}
            },
            {
                "species": [
                    {
                        "element": "O",
                        "occu": 1
                    }
                ],
                "abc": [
                    0.51907293,
                    0.00137772,
                    0.49743349
                ],
                "xyz": [
                    2.6482200958526714,
                    -1.5196157960072598,
                    7.347641348996373
                ],
                "label": "O",
                "properties": {}
            },
            {
                "species": [
                    {
                        "element": "O",
                        "occu": 1
                    }
                ],
                "abc": [
                    0.99862228,
                    0.48092707,
                    0.50256651
                ],
                "xyz": [
                    7.544988154147329,
                    -1.5196157960072596,
                    7.423350321003627
                ],
                "label": "O",
                "properties": {}
            },
            {
                "species": [
                    {
                        "element": "O",
                        "occu": 1
                    }
                ],
                "abc": [
                    0.84209058,
                    0.80621906,
                    0.6594369
                ],
                "xyz": [
                    8.403775163852188,
                    -0.10529540812013805,
                    9.740498478684511
                ],
                "label": "O",
                "properties": {}
            },
            {
                "species": [
                    {
                        "element": "O",
                        "occu": 1
                    }
                ],
                "abc": [
                    0.78259896,
                    0.36411462,
                    0.66201799
                ],
                "xyz": [
                    5.842733903415065,
                    -1.228397329474369,
                    9.778682926936463
                ],
                "label": "O",
                "properties": {}
            },
            {
                "species": [
                    {
                        "element": "O",
                        "occu": 1
                    }
                ],
                "abc": [
                    0.34107267,
                    0.86738137,
                    0.65617039
                ],
                "xyz": [
                    6.158067867365798,
                    1.5448993899249064,
                    9.692299498761884
                ],
                "label": "O",
                "properties": {}
            },
            {
                "species": [
                    {
                        "element": "O",
                        "occu": 1
                    }
                ],
                "abc": [
                    0.19378094,
                    0.15790942,
                    0.3405631
                ],
                "xyz": [
                    1.789433086147812,
                    -0.1052954081201376,
                    5.0304931913154896
                ],
                "label": "O",
                "properties": {}
            },
            {
                "species": [
                    {
                        "element": "O",
                        "occu": 1
                    }
                ],
                "abc": [
                    0.13261863,
                    0.65892733,
                    0.34382961
                ],
                "xyz": [
                    4.035140382634203,
                    1.5448993899249062,
                    5.078692171238116
                ],
                "label": "O",
                "properties": {}
            },
            {
                "species": [
                    {
                        "element": "O",
                        "occu": 1
                    }
                ],
                "abc": [
                    0.63588538,
                    0.21740104,
                    0.33798201
                ],
                "xyz": [
                    4.350474346584934,
                    -1.2283973294743693,
                    4.9923087430635364
                ],
                "label": "O",
                "properties": {}
            },
            {
                "species": [
                    {
                        "element": "O",
                        "occu": 1
                    }
                ],
                "abc": [
                    0.28521857,
                    0.39159615,
                    0.00875522
                ],
                "xyz": [
                    3.4554475313798894,
                    0.3122552571213204,
                    0.1292462749491134
                ],
                "label": "O",
                "properties": {}
            },
            {
                "species": [
                    {
                        "element": "O",
                        "occu": 1
                    }
                ],
                "abc": [
                    0.60840385,
                    0.71478143,
                    0.99124478
                ],
                "xyz": [
                    6.737760718620111,
                    0.31225525712132085,
                    14.641745395050886
                ],
                "label": "O",
                "properties": {}
            }
        ]
    },
    "spacegroup": {
        "source": "spglib",
        "symbol": "C2",
        "number": 5,
        "point_group": "2",
        "crystal_system": "monoclinic",
        "hall": "C 2y"
    },
    "dielectric": {
        "epsilon_ionic": [
            [
                18.89409376,
                -0.00016875,
                0.41974822
            ],
            [
                -0.00016875,
                18.76685955,
                -0.00019934
            ],
            [
                0.41974822,
                -0.00019934,
                9.74768981
            ]
        ],
        "epsilon_ionic_avg": 15.802881040000003,
        "epsilon_ionic_eig": [
            9.728467054036084,
            18.9133167275003,
            18.766859338463625
        ],
        "epsilon_electronic": [
            [
                4.08535086,
                0.0,
                0.01183433
            ],
            [
                0.0,
                4.10278212,
                0.0
            ],
            [
                0.01183332,
                0.0,
                4.12909876
            ]
        ],
        "epsilon_electronic_avg": 4.105743913333334,
        "epsilon_electronic_eig": [
            4.082354966766113,
            4.132094653233887,
            4.10278212
        ]
    },
    "phonon": {
        "lowest_freq": -0.08202617023644146,
        "frequency": [
            -0.08202617023644146,
            -0.0780133761020463,
            -0.04411168056880213,
            1.172886602488949,
            1.5101383879051766,
            1.827837767597908,
            1.8370411536475777,
            1.965480466324296,
            2.2294128088867997,
            2.3114629073680866,
            2.558058155401193,
            2.5671791846367915,
            2.596236004686504,
            2.771517730986309,
            2.7989247913632203,
            2.8658187422718235,
            3.0097102840873204,
            3.0527952166169827,
            3.1861407063219795,
            3.1989305296795227,
            3.248272460397912,
            3.2878698229634318,
            3.32909371136892,
            3.404817962387946,
            3.5782063853332264,
            3.6307922247756332,
            3.7606206783020393,
            3.8069348624979167,
            4.053451800306327,
            4.090054705557537,
            4.1519955720567845,
            4.270745490565372,
            4.347850832778498,
            4.38868461249705,
            4.63476549516095,
            4.813749714295698,
            4.881871511542341,
            5.080043782145736,
            5.263378201481696,
            6.400194163451548,
            6.418492362012317,
            6.576389225081529,
            6.735706924104636,
            7.024265184782545,
            7.09289475835769,
            7.385963597481526,
            7.403096672607712,
            7.466414855274331,
            7.954792772371126,
            8.029390515858468,
            8.239383930977539,
            8.25704518868097,
            8.43841438640059,
            9.137378359389482,
            9.148978638750222,
            9.460846898942945,
            9.475139270573905,
            10.08952473325244,
            10.101497385205102,
            10.202803673667706,
            10.259390248121283,
            10.479511572514221,
            10.603678056663329,
            10.896804708187782,
            11.130475401859078,
            11.13985192146105,
            11.225307748806797,
            11.74280217311454,
            11.764311152430107,
            12.4793492671274,
            14.877472740585526,
            14.879689322802886,
            18.326859324282605,
            18.359296598615966,
            18.648572792916404,
            18.66138452317361,
            18.92982127173898,
            22.87156244709083,
            23.048878150523088,
            23.805867063277237,
            23.844045101296675,
            23.902100065542903,
            23.963310272387623,
            24.311687425070748,
            24.35243987523171,
            25.444130934451945,
            26.61769690788887
        ]
    },
    "born_effective_charge": {
        "avg_abs_trace": 2.561423103448276,
        "tensors": [
            [
                [
                    2.76825,
                    -0.09503,
                    0.02691
                ],
                [
                    0.10605,
                    2.73402,
                    -0.00173
                ],
                [
                    0.03166,
                    0.04195,
                    2.50915
                ]
            ],
            [
                [
                    2.76822,
                    0.09497,
                    0.027
                ],
                [
                    -0.10605,
                    2.73402,
                    0.00173
                ],
                [
                    0.03169,
                    -0.042,
                    2.509
                ]
            ],
            [
                [
                    2.33655,
                    -0.00558,
                    0.00651
                ],
                [
                    0.05124,
                    2.32235,
                    0.08123
                ],
                [
                    -0.02065,
                    0.21655,
                    3.91294
                ]
            ],
            [
                [
                    2.33658,
                    0.00558,
                    0.00651
                ],
                [
                    -0.05124,
                    2.32235,
                    -0.08123
                ],
                [
                    -0.02067,
                    -0.21658,
                    3.91235
                ]
            ],
            [
                [
                    3.09945,
                    -4e-05,
                    0.02229
                ],
                [
                    -0.0,
                    3.06338,
                    0.0
                ],
                [
                    0.01344,
                    -3e-05,
                    1.76019
                ]
            ],
            [
                [
                    2.92397,
                    -6e-05,
                    -0.01892
                ],
                [
                    -0.0,
                    3.08911,
                    0.0
                ],
                [
                    0.09319,
                    0.0,
                    2.40544
                ]
            ],
            [
                [
                    1.31901,
                    0.03917,
                    0.00705
                ],
                [
                    -0.03216,
                    1.31441,
                    0.03549
                ],
                [
                    0.00109,
                    -0.04613,
                    1.3654
                ]
            ],
            [
                [
                    1.31899,
                    -0.0392,
                    0.00705
                ],
                [
                    0.03216,
                    1.31441,
                    -0.03549
                ],
                [
                    0.00109,
                    0.04607,
                    1.36537
                ]
            ],
            [
                [
                    6.1891,
                    0.0292,
                    -0.00143
                ],
                [
                    -0.07032,
                    6.20377,
                    0.01141
                ],
                [
                    -0.00183,
                    -0.01994,
                    5.16743
                ]
            ],
            [
                [
                    6.18894,
                    -0.02924,
                    -0.0014
                ],
                [
                    0.07032,
                    6.20377,
                    -0.01141
                ],
                [
                    -0.00189,
                    0.01989,
                    5.16757
                ]
            ],
            [
                [
                    2.92304,
                    0.10831,
                    0.05273
                ],
                [
                    0.09544,
                    3.01642,
                    0.24704
                ],
                [
                    0.01848,
                    0.10651,
                    3.45863
                ]
            ],
            [
                [
                    2.92304,
                    -0.10846,
                    0.05283
                ],
                [
                    -0.09544,
                    3.01642,
                    -0.24704
                ],
                [
                    0.01836,
                    -0.10687,
                    3.45886
                ]
            ],
            [
                [
                    -2.73414,
                    -0.06461,
                    -0.39593
                ],
                [
                    -0.08964,
                    -1.32701,
                    0.01381
                ],
                [
                    -0.55253,
                    0.07918,
                    -1.48672
                ]
            ],
            [
                [
                    -1.75368,
                    -0.5562,
                    0.31126
                ],
                [
                    -0.56242,
                    -2.05867,
                    0.43266
                ],
                [
                    0.39886,
                    0.56403,
                    -1.73369
                ]
            ],
            [
                [
                    -1.57521,
                    0.61486,
                    0.06531
                ],
                [
                    0.64072,
                    -2.67829,
                    -0.19248
                ],
                [
                    0.15144,
                    -0.3426,
                    -1.30876
                ]
            ],
            [
                [
                    -2.73425,
                    0.06464,
                    -0.39603
                ],
                [
                    0.08964,
                    -1.32701,
                    -0.01381
                ],
                [
                    -0.55257,
                    -0.07931,
                    -1.48668
                ]
            ],
            [
                [
                    -1.575,
                    -0.61448,
                    0.06514
                ],
                [
                    -0.64072,
                    -2.67829,
                    0.19248
                ],
                [
                    0.15222,
                    0.34369,
                    -1.30898
                ]
            ],
            [
                [
                    -1.75363,
                    0.55604,
                    0.3112
                ],
                [
                    0.56242,
                    -2.05867,
                    -0.43266
                ],
                [
                    0.39894,
                    -0.56414,
                    -1.73361
                ]
            ],
            [
                [
                    -4.04738,
                    -1e-05,
                    -1.51584
                ],
                [
                    -0.0,
                    -1.79779,
                    0.0
                ],
                [
                    -1.10878,
                    -6e-05,
                    -2.39791
                ]
            ],
            [
                [
                    -2.37218,
                    -0.96649,
                    0.74856
                ],
                [
                    -0.96679,
                    -3.48096,
                    1.31722
                ],
                [
                    0.55327,
                    0.96896,
                    -2.40209
                ]
            ],
            [
                [
                    -2.37215,
                    0.96648,
                    0.74852
                ],
                [
                    0.96679,
                    -3.48096,
                    -1.31722
                ],
                [
                    0.55326,
                    -0.96908,
                    -2.40207
                ]
            ],
            [
                [
                    -2.75545,
                    0.17352,
                    -0.48384
                ],
                [
                    0.21641,
                    -1.98364,
                    0.08765
                ],
                [
                    -0.49199,
                    0.09846,
                    -2.2878
                ]
            ],
            [
                [
                    -2.38531,
                    -0.42662,
                    0.33743
                ],
                [
                    -0.4285,
                    -2.31617,
                    0.37805
                ],
                [
                    0.31253,
                    0.3795,
                    -2.35125
                ]
            ],
            [
                [
                    -1.99741,
                    0.22747,
                    0.11838
                ],
                [
                    0.23591,
                    -2.81669,
                    -0.46493
                ],
                [
                    0.15392,
                    -0.47657,
                    -2.16957
                ]
            ],
            [
                [
                    -2.75548,
                    -0.17358,
                    -0.48396
                ],
                [
                    -0.21641,
                    -1.98364,
                    -0.08765
                ],
                [
                    -0.49185,
                    -0.09851,
                    -2.28776
                ]
            ],
            [
                [
                    -1.99733,
                    -0.22746,
                    0.11843
                ],
                [
                    -0.23591,
                    -2.81669,
                    0.46493
                ],
                [
                    0.15397,
                    0.47652,
                    -2.16963
                ]
            ],
            [
                [
                    -2.38523,
                    0.42663,
                    0.3375
                ],
                [
                    0.4285,
                    -2.31617,
                    -0.37805
                ],
                [
                    0.31255,
                    -0.37964,
                    -2.35124
                ]
            ],
            [
                [
                    -0.95067,
                    -0.15425,
                    -0.03653
                ],
                [
                    -0.15135,
                    -1.10689,
                    -0.53144
                ],
                [
                    -0.05357,
                    -0.39969,
                    -3.55654
                ]
            ],
            [
                [
                    -0.95065,
                    0.15442,
                    -0.03675
                ],
                [
                    0.15135,
                    -1.10689,
                    0.53144
                ],
                [
                    -0.05363,
                    0.39986,
                    -3.55803
                ]
            ]
        ]
    },
    "band_gap": 3.0496999999999996,
    "is_direct": false,
    "formula": "Ba6Na2Nb2V2O17"
}