{
    "mp_id": "mp-10418",
    "nelements": 3,
    "nsites": 8,
    "elements": [
        "O",
        "Rb",
        "Sb"
    ],
    "structure": {
        "@module": "pymatgen.core.structure",
        "@class": "Structure",
        "charge": null,
        "lattice": {
            "matrix": [
                [
                    3.98427475,
                    -4.45296303,
                    -0.00081783
                ],
                [
                    3.98427475,
                    4.45296303,
                    -0.00081783
                ],
                [
                    -3.09787749,
                    0.0,
                    4.66861762
                ]
            ],
            "a": 5.97522599563232,
            "b": 5.97522599563232,
            "c": 5.60293096734407,
            "alpha": 111.64096561288063,
            "beta": 111.64096561288063,
            "gamma": 96.35902060570616,
            "volume": 165.63705965213123
        },
        "sites": [
            {
                "species": [
                    {
                        "element": "Rb",
                        "occu": 1
                    }
                ],
                "abc": [
                    0.64191397,
                    0.35808603,
                    0.75
                ],
                "xyz": [
                    1.6608666324999994,
                    -1.263875323701058,
                    3.5006453850000003
                ],
                "label": "Rb",
                "properties": {}
            },
            {
                "species": [
                    {
                        "element": "Rb",
                        "occu": 1
                    }
                ],
                "abc": [
                    0.35808603,
                    0.64191397,
                    0.25
                ],
                "xyz": [
                    3.2098053774999995,
                    1.263875323701058,
                    1.166336575
                ],
                "label": "Rb",
                "properties": {}
            },
            {
                "species": [
                    {
                        "element": "Sb",
                        "occu": 1
                    }
                ],
                "abc": [
                    0.90922986,
                    0.09077014,
                    0.25
                ],
                "xyz": [
                    3.2098053774999995,
                    -3.6445708747041516,
                    1.166336575
                ],
                "label": "Sb",
                "properties": {}
            },
            {
                "species": [
                    {
                        "element": "Sb",
                        "occu": 1
                    }
                ],
                "abc": [
                    0.09077014,
                    0.90922986,
                    0.75
                ],
                "xyz": [
                    1.6608666324999994,
                    3.6445708747041516,
                    3.5006453850000003
                ],
                "label": "Sb",
                "properties": {}
            },
            {
                "species": [
                    {
                        "element": "O",
                        "occu": 1
                    }
                ],
                "abc": [
                    0.13016642,
                    0.22679782,
                    0.71070618
                ],
                "xyz": [
                    -0.7794370689409482,
                    0.430296051737142,
                    3.3177234585264923
                ],
                "label": "O",
                "properties": {}
            },
            {
                "species": [
                    {
                        "element": "O",
                        "occu": 1
                    }
                ],
                "abc": [
                    0.77320218,
                    0.86983358,
                    0.78929382
                ],
                "xyz": [
                    4.1011703339409475,
                    0.4302960517371419,
                    3.683567311473508
                ],
                "label": "O",
                "properties": {}
            },
            {
                "species": [
                    {
                        "element": "O",
                        "occu": 1
                    }
                ],
                "abc": [
                    0.22679782,
                    0.13016642,
                    0.21070618
                ],
                "xyz": [
                    0.769501676059052,
                    -0.430296051737142,
                    0.9834146485264924
                ],
                "label": "O",
                "properties": {}
            },
            {
                "species": [
                    {
                        "element": "O",
                        "occu": 1
                    }
                ],
                "abc": [
                    0.86983358,
                    0.77320218,
                    0.28929382
                ],
                "xyz": [
                    5.650109078940948,
                    -0.4302960517371419,
                    1.3492585014735075
                ],
                "label": "O",
                "properties": {}
            }
        ]
    },
    "spacegroup": {
        "source": "spglib",
        "symbol": "C2/c",
        "number": 15,
        "point_group": "2/m",
        "crystal_system": "monoclinic",
        "hall": "-C 2yc"
    },
    "dielectric": {
        "epsilon_ionic": [
            [
                4.90448509,
                -0.0,
                -3.03957061
            ],
            [
                -0.0,
                3.49636226,
                -2e-08
            ],
            [
                -3.03957061,
                -2e-08,
                9.15269854
            ]
        ],
        "epsilon_ionic_avg": 5.851181963333332,
        "epsilon_ionic_eig": [
            10.736801473631235,
            3.32038215636876,
            3.4963622600000006
        ],
        "epsilon_electronic": [
            [
                3.56670548,
                0.0,
                -0.47519216
            ],
            [
                0.0,
                3.36668701,
                0.0
            ],
            [
                -0.47523885,
                0.0,
                4.16002841
            ]
        ],
        "epsilon_electronic_avg": 3.6978069666666666,
        "epsilon_electronic_eig": [
            3.303154663392963,
            4.423579226607037,
            3.36668701
        ]
    },
    "phonon": {
        "lowest_freq": -0.037037696978240386,
        "frequency": [
            -0.037037696978240386,
            -0.021951410027347514,
            -0.014088801602078043,
            1.5653759017417437,
            2.264302458404641,
            2.394503161150181,
            2.485592824248741,
            2.512649540727549,
            3.1784393324341047,
            3.208756874506686,
            4.131726411868381,
            4.829687534908417,
            5.052409954818766,
            6.363377544636969,
            6.475298723138276,
            8.61687858759522,
            9.178557816750015,
            11.971747026547824,
            12.322380235550435,
            12.444497509801375,
            15.831113038510248,
            16.8611510940986,
            17.751382226052772,
            18.027368043318912
        ]
    },
    "born_effective_charge": {
        "avg_abs_trace": 1.9677812499999998,
        "tensors": [
            [
                [
                    1.31266,
                    -1e-05,
                    0.17687
                ],
                [
                    0.0,
                    1.24803,
                    0.0
                ],
                [
                    0.19725,
                    0.00013,
                    1.31434
                ]
            ],
            [
                [
                    1.31266,
                    1e-05,
                    0.17687
                ],
                [
                    0.0,
                    1.24837,
                    0.0
                ],
                [
                    0.19725,
                    -0.00013,
                    1.31434
                ]
            ],
            [
                [
                    2.2411,
                    -0.00034,
                    -1.2472
                ],
                [
                    0.0,
                    1.74715,
                    0.0
                ],
                [
                    -1.26493,
                    -0.00011,
                    3.94327
                ]
            ],
            [
                [
                    2.2411,
                    0.00034,
                    -1.2472
                ],
                [
                    0.0,
                    1.74708,
                    0.0
                ],
                [
                    -1.26493,
                    0.00011,
                    3.94327
                ]
            ],
            [
                [
                    -1.77679,
                    -0.92784,
                    0.53519
                ],
                [
                    -0.36977,
                    -1.49768,
                    0.20988
                ],
                [
                    0.53375,
                    0.82758,
                    -2.62878
                ]
            ],
            [
                [
                    -1.77697,
                    0.9286,
                    0.53514
                ],
                [
                    0.36977,
                    -1.49768,
                    -0.20988
                ],
                [
                    0.53393,
                    -0.82846,
                    -2.62884
                ]
            ],
            [
                [
                    -1.77679,
                    0.92784,
                    0.53519
                ],
                [
                    0.36956,
                    -1.49763,
                    -0.21013
                ],
                [
                    0.53375,
                    -0.82758,
                    -2.62878
                ]
            ],
            [
                [
                    -1.77697,
                    -0.9286,
                    0.53514
                ],
                [
                    -0.36956,
                    -1.49763,
                    0.21013
                ],
                [
                    0.53393,
                    0.82846,
                    -2.62884
                ]
            ]
        ]
    },
    "band_gap": 2.1205,
    "is_direct": true,
    "formula": "RbSbO2"
}