{
    "mp_id": "mp-19162",
    "nelements": 3,
    "nsites": 12,
    "elements": [
        "La",
        "O",
        "V"
    ],
    "structure": {
        "@module": "pymatgen.core.structure",
        "@class": "Structure",
        "charge": null,
        "lattice": {
            "matrix": [
                [
                    -3.71981908,
                    3.71981908,
                    3.25575876
                ],
                [
                    3.71981908,
                    -3.71981908,
                    3.25575876
                ],
                [
                    3.71981908,
                    3.71981908,
                    -3.25575876
                ]
            ],
            "a": 6.186604325409928,
            "b": 6.186604325409928,
            "c": 6.186604325409928,
            "alpha": 106.078193760775,
            "beta": 106.078193760775,
            "gamma": 116.4938698723943,
            "volume": 180.2004389352108
        },
        "sites": [
            {
                "species": [
                    {
                        "element": "La",
                        "occu": 1
                    }
                ],
                "abc": [
                    0.0,
                    0.0,
                    0.0
                ],
                "xyz": [
                    0.0,
                    0.0,
                    0.0
                ],
                "label": "La",
                "properties": {}
            },
            {
                "species": [
                    {
                        "element": "La",
                        "occu": 1
                    }
                ],
                "abc": [
                    0.75,
                    0.25,
                    0.5
                ],
                "xyz": [
                    2.220446049250313e-16,
                    3.7198190799999997,
                    1.62787938
                ],
                "label": "La",
                "properties": {}
            },
            {
                "species": [
                    {
                        "element": "V",
                        "occu": 1
                    }
                ],
                "abc": [
                    0.25,
                    0.75,
                    0.5
                ],
                "xyz": [
                    3.7198190799999997,
                    2.220446049250313e-16,
                    1.62787938
                ],
                "label": "V",
                "properties": {}
            },
            {
                "species": [
                    {
                        "element": "V",
                        "occu": 1
                    }
                ],
                "abc": [
                    0.5,
                    0.5,
                    0.0
                ],
                "xyz": [
                    0.0,
                    0.0,
                    3.25575876
                ],
                "label": "V",
                "properties": {}
            },
            {
                "species": [
                    {
                        "element": "O",
                        "occu": 1
                    }
                ],
                "abc": [
                    0.50852093,
                    0.33024812,
                    0.17827281
                ],
                "xyz": [
                    0.0,
                    1.3262852001664296,
                    2.1504164193270623
                ],
                "label": "O",
                "properties": {}
            },
            {
                "species": [
                    {
                        "element": "O",
                        "occu": 1
                    }
                ],
                "abc": [
                    0.08024812,
                    0.40197532,
                    0.32172719
                ],
                "xyz": [
                    2.3935339170317613,
                    -3.71981907498764e-08,
                    0.52253707188465
                ],
                "label": "O",
                "properties": {}
            },
            {
                "species": [
                    {
                        "element": "O",
                        "occu": 1
                    }
                ],
                "abc": [
                    0.08024812,
                    0.75852093,
                    0.67827281
                ],
                "xyz": [
                    5.046104280166429,
                    0.0,
                    0.5225370393270623
                ],
                "label": "O",
                "properties": {}
            },
            {
                "species": [
                    {
                        "element": "O",
                        "occu": 1
                    }
                ],
                "abc": [
                    0.15197532,
                    0.33024812,
                    0.82172719
                ],
                "xyz": [
                    3.7198190428018094,
                    2.3935339170317613,
                    -1.1053423081153502
                ],
                "label": "O",
                "properties": {}
            },
            {
                "species": [
                    {
                        "element": "O",
                        "occu": 1
                    }
                ],
                "abc": [
                    0.66975188,
                    0.84802468,
                    0.17827281
                ],
                "xyz": [
                    1.3262851629682388,
                    3.71981907498764e-08,
                    4.3611010681153495
                ],
                "label": "O",
                "properties": {}
            },
            {
                "species": [
                    {
                        "element": "O",
                        "occu": 1
                    }
                ],
                "abc": [
                    0.24147907,
                    0.91975188,
                    0.32172719
                ],
                "xyz": [
                    3.7198190800000006,
                    -1.3262852001664298,
                    2.7332217206729377
                ],
                "label": "O",
                "properties": {}
            },
            {
                "species": [
                    {
                        "element": "O",
                        "occu": 1
                    }
                ],
                "abc": [
                    0.59802468,
                    0.91975188,
                    0.67827281
                ],
                "xyz": [
                    3.719819117198191,
                    1.3262851629682384,
                    2.7332216881153495
                ],
                "label": "O",
                "properties": {}
            },
            {
                "species": [
                    {
                        "element": "O",
                        "occu": 1
                    }
                ],
                "abc": [
                    0.66975188,
                    0.49147907,
                    0.82172719
                ],
                "xyz": [
                    2.393533879833571,
                    3.7198190799999997,
                    1.1053423406729372
                ],
                "label": "O",
                "properties": {}
            }
        ]
    },
    "spacegroup": {
        "source": "spglib",
        "symbol": "I4_1/amd",
        "number": 141,
        "point_group": "4/mmm",
        "crystal_system": "tetragonal",
        "hall": "I 4bw 2bw -1bw"
    },
    "dielectric": {
        "epsilon_ionic": [
            [
                6.83058024,
                -0.0,
                0.0
            ],
            [
                -0.0,
                6.83077661,
                -0.0
            ],
            [
                0.0,
                -0.0,
                10.51317343
            ]
        ],
        "epsilon_ionic_avg": 8.05817676,
        "epsilon_ionic_eig": [
            6.83058024,
            6.83077661,
            10.51317343
        ],
        "epsilon_electronic": [
            [
                3.94853721,
                0.0,
                0.0
            ],
            [
                0.0,
                3.94853721,
                -0.0
            ],
            [
                0.0,
                0.0,
                4.92320302
            ]
        ],
        "epsilon_electronic_avg": 4.273425813333334,
        "epsilon_electronic_eig": [
            3.94853721,
            3.94853721,
            4.92320302
        ]
    },
    "phonon": {
        "lowest_freq": -0.08226347733753124,
        "frequency": [
            -0.08226347733753124,
            -0.08226347733753124,
            -0.05083417014740499,
            2.1244505537966742,
            3.231326857291831,
            3.231326857291831,
            3.66020926243091,
            4.282287455908267,
            4.413117652595666,
            4.413117652595666,
            4.68112657287332,
            4.68112657287332,
            6.472098627492952,
            6.6592117914089615,
            6.6592117914089615,
            6.834638461788825,
            7.302965835887504,
            7.442395602015394,
            7.442395602015394,
            8.24988272483571,
            8.24988272483571,
            9.179693001110072,
            10.27358563575456,
            10.27358563575456,
            10.877902811896211,
            12.608998137109868,
            12.978889813955307,
            13.24693943023048,
            22.749550721233145,
            22.749550721233145,
            23.747571902401848,
            23.747571902401848,
            23.82259036189681,
            23.853044135361046,
            24.816926151679205,
            25.0529690981298
        ]
    },
    "born_effective_charge": {
        "avg_abs_trace": 2.825016111111111,
        "tensors": [
            [
                [
                    4.37535,
                    0.0,
                    0.00012
                ],
                [
                    -0.0,
                    4.3752,
                    -6e-05
                ],
                [
                    -0.0,
                    -0.0,
                    5.36237
                ]
            ],
            [
                [
                    4.37535,
                    -0.0,
                    -0.00012
                ],
                [
                    -0.0,
                    4.3752,
                    6e-05
                ],
                [
                    -0.0,
                    -0.0,
                    5.36237
                ]
            ],
            [
                [
                    3.24457,
                    -0.0,
                    0.00021
                ],
                [
                    -0.0,
                    3.24301,
                    -5e-05
                ],
                [
                    -0.0,
                    -0.0,
                    4.82465
                ]
            ],
            [
                [
                    3.24457,
                    0.0,
                    -0.00021
                ],
                [
                    -0.0,
                    3.24301,
                    5e-05
                ],
                [
                    -0.0,
                    -0.0,
                    4.82465
                ]
            ],
            [
                [
                    -0.70352,
                    9e-05,
                    -1e-05
                ],
                [
                    -0.0,
                    -3.10576,
                    1.18907
                ],
                [
                    -0.0,
                    1.22562,
                    -2.54684
                ]
            ],
            [
                [
                    -3.10649,
                    -0.0,
                    -1.18825
                ],
                [
                    -8e-05,
                    -0.70337,
                    -5e-05
                ],
                [
                    -1.22562,
                    -0.0,
                    -2.54684
                ]
            ],
            [
                [
                    -3.10638,
                    -0.0,
                    1.1881
                ],
                [
                    8e-05,
                    -0.70337,
                    -5e-05
                ],
                [
                    1.22562,
                    -0.0,
                    -2.54684
                ]
            ],
            [
                [
                    -0.70352,
                    -9e-05,
                    -1e-05
                ],
                [
                    -0.0,
                    -3.10571,
                    -1.18882
                ],
                [
                    -0.0,
                    -1.22562,
                    -2.54684
                ]
            ],
            [
                [
                    -3.10638,
                    0.0,
                    -1.1881
                ],
                [
                    8e-05,
                    -0.70337,
                    5e-05
                ],
                [
                    -1.22561,
                    -0.0,
                    -2.54667
                ]
            ],
            [
                [
                    -0.70352,
                    -9e-05,
                    1e-05
                ],
                [
                    -0.0,
                    -3.10571,
                    1.18882
                ],
                [
                    -0.0,
                    1.22561,
                    -2.54667
                ]
            ],
            [
                [
                    -0.70352,
                    9e-05,
                    1e-05
                ],
                [
                    -0.0,
                    -3.10576,
                    -1.18907
                ],
                [
                    -0.0,
                    -1.22561,
                    -2.54667
                ]
            ],
            [
                [
                    -3.10649,
                    -0.0,
                    1.18825
                ],
                [
                    -8e-05,
                    -0.70337,
                    5e-05
                ],
                [
                    1.22561,
                    -0.0,
                    -2.54667
                ]
            ]
        ]
    },
    "band_gap": 3.1625,
    "is_direct": false,
    "formula": "LaVO4"
}