{
    "mp_id": "mp-1213706",
    "nelements": 3,
    "nsites": 14,
    "elements": [
        "Cs",
        "O",
        "Pb"
    ],
    "structure": {
        "@module": "pymatgen.core.structure",
        "@class": "Structure",
        "charge": null,
        "lattice": {
            "matrix": [
                [
                    -4.52642553,
                    4.52642553,
                    4.52642553
                ],
                [
                    4.52642553,
                    -4.52642553,
                    4.52642553
                ],
                [
                    4.52642553,
                    4.52642553,
                    -4.52642553
                ]
            ],
            "a": 7.8399989946368835,
            "b": 7.8399989946368835,
            "c": 7.8399989946368835,
            "alpha": 109.47122063449069,
            "beta": 109.47122063449069,
            "gamma": 109.47122063449069,
            "volume": 370.9591862690354
        },
        "sites": [
            {
                "species": [
                    {
                        "element": "Cs",
                        "occu": 1
                    }
                ],
                "abc": [
                    0.48132015,
                    0.48132015,
                    0.48132015
                ],
                "xyz": [
                    2.1786598150634293,
                    2.1786598150634293,
                    2.1786598150634293
                ],
                "label": "Cs",
                "properties": {}
            },
            {
                "species": [
                    {
                        "element": "Cs",
                        "occu": 1
                    }
                ],
                "abc": [
                    0.01867985,
                    0.5,
                    0.0
                ],
                "xyz": [
                    2.1786598150634293,
                    -2.1786598150634293,
                    2.3477657149365707
                ],
                "label": "Cs",
                "properties": {}
            },
            {
                "species": [
                    {
                        "element": "Cs",
                        "occu": 1
                    }
                ],
                "abc": [
                    0.0,
                    0.01867985,
                    0.5
                ],
                "xyz": [
                    2.3477657149365707,
                    2.1786598150634293,
                    -2.1786598150634293
                ],
                "label": "Cs",
                "properties": {}
            },
            {
                "species": [
                    {
                        "element": "Cs",
                        "occu": 1
                    }
                ],
                "abc": [
                    0.5,
                    0.0,
                    0.01867985
                ],
                "xyz": [
                    -2.1786598150634293,
                    2.3477657149365707,
                    2.1786598150634293
                ],
                "label": "Cs",
                "properties": {}
            },
            {
                "species": [
                    {
                        "element": "Pb",
                        "occu": 1
                    }
                ],
                "abc": [
                    0.01784021,
                    0.01784021,
                    0.01784021
                ],
                "xyz": [
                    0.0807523820045613,
                    0.0807523820045613,
                    0.0807523820045613
                ],
                "label": "Pb",
                "properties": {}
            },
            {
                "species": [
                    {
                        "element": "Pb",
                        "occu": 1
                    }
                ],
                "abc": [
                    0.48215979,
                    0.5,
                    0.0
                ],
                "xyz": [
                    0.08075238200456125,
                    -0.08075238200456125,
                    4.445673147995439
                ],
                "label": "Pb",
                "properties": {}
            },
            {
                "species": [
                    {
                        "element": "Pb",
                        "occu": 1
                    }
                ],
                "abc": [
                    0.0,
                    0.48215979,
                    0.5
                ],
                "xyz": [
                    4.445673147995439,
                    0.08075238200456125,
                    -0.08075238200456125
                ],
                "label": "Pb",
                "properties": {}
            },
            {
                "species": [
                    {
                        "element": "Pb",
                        "occu": 1
                    }
                ],
                "abc": [
                    0.5,
                    0.0,
                    0.48215979
                ],
                "xyz": [
                    -0.08075238200456125,
                    4.445673147995439,
                    0.08075238200456125
                ],
                "label": "Pb",
                "properties": {}
            },
            {
                "species": [
                    {
                        "element": "O",
                        "occu": 1
                    }
                ],
                "abc": [
                    0.23517249,
                    0.98517249,
                    0.25
                ],
                "xyz": [
                    4.52642553,
                    -2.2632127649999996,
                    4.392194290379339
                ],
                "label": "O",
                "properties": {}
            },
            {
                "species": [
                    {
                        "element": "O",
                        "occu": 1
                    }
                ],
                "abc": [
                    0.26482751,
                    0.51482751,
                    0.75
                ],
                "xyz": [
                    4.52642553,
                    2.2632127649999996,
                    0.13423123962066086
                ],
                "label": "O",
                "properties": {}
            },
            {
                "species": [
                    {
                        "element": "O",
                        "occu": 1
                    }
                ],
                "abc": [
                    0.98517249,
                    0.25,
                    0.23517249
                ],
                "xyz": [
                    -2.2632127649999996,
                    4.392194290379339,
                    4.52642553
                ],
                "label": "O",
                "properties": {}
            },
            {
                "species": [
                    {
                        "element": "O",
                        "occu": 1
                    }
                ],
                "abc": [
                    0.51482751,
                    0.75,
                    0.26482751
                ],
                "xyz": [
                    2.2632127649999996,
                    0.13423123962066086,
                    4.526425530000001
                ],
                "label": "O",
                "properties": {}
            },
            {
                "species": [
                    {
                        "element": "O",
                        "occu": 1
                    }
                ],
                "abc": [
                    0.25,
                    0.23517249,
                    0.98517249
                ],
                "xyz": [
                    4.392194290379339,
                    4.52642553,
                    -2.2632127649999996
                ],
                "label": "O",
                "properties": {}
            },
            {
                "species": [
                    {
                        "element": "O",
                        "occu": 1
                    }
                ],
                "abc": [
                    0.75,
                    0.26482751,
                    0.51482751
                ],
                "xyz": [
                    0.13423123962066086,
                    4.52642553,
                    2.263212764999999
                ],
                "label": "O",
                "properties": {}
            }
        ]
    },
    "spacegroup": {
        "source": "spglib",
        "symbol": "I2_13",
        "number": 199,
        "point_group": "23",
        "crystal_system": "cubic",
        "hall": "I 2b 2c 3"
    },
    "dielectric": {
        "epsilon_ionic": [
            [
                5.00397311,
                -4e-08,
                7e-08
            ],
            [
                -4e-08,
                5.00349402,
                1e-08
            ],
            [
                7e-08,
                1e-08,
                5.00357281
            ]
        ],
        "epsilon_ionic_avg": 5.00367998,
        "epsilon_ionic_eig": [
            5.00397311001558,
            5.003572809989032,
            5.003494019995388
        ],
        "epsilon_electronic": [
            [
                4.78942037,
                0.0,
                -0.0
            ],
            [
                0.0,
                4.78942037,
                0.0
            ],
            [
                0.0,
                0.0,
                4.78942037
            ]
        ],
        "epsilon_electronic_avg": 4.78942037,
        "epsilon_electronic_eig": [
            4.78942037,
            4.78942037,
            4.78942037
        ]
    },
    "phonon": {
        "lowest_freq": -0.07234665361839866,
        "frequency": [
            -0.07234665361839866,
            -0.07234665361839866,
            -0.07234665361839866,
            1.556866757210573,
            1.556866757210573,
            1.556866757210573,
            1.705703243775775,
            1.705703243775775,
            1.705703243775775,
            1.9089586557552758,
            1.9089586557552758,
            1.9089586557552758,
            1.9125188859771018,
            1.9125188859771018,
            2.172459744404388,
            2.3793052092962332,
            2.3793052092962332,
            2.3793052092962332,
            2.8717549120409607,
            2.8717549120409607,
            2.8717549120409607,
            3.868553257199108,
            3.868553257199108,
            4.108063399817921,
            4.283378200403667,
            4.283378200403667,
            4.283378200403667,
            4.698441831760242,
            4.698441831760242,
            4.698441831760242,
            5.386579806722833,
            5.386579806722833,
            5.555298650055876,
            7.273037860259119,
            7.273037860259119,
            7.273037860259119,
            14.116099498442896,
            14.116099498442896,
            14.116099498442896,
            18.107580436377834,
            18.107580436377834,
            18.107580436377834
        ]
    },
    "born_effective_charge": {
        "avg_abs_trace": 2.0144952380952383,
        "tensors": [
            [
                [
                    1.25014,
                    -0.0932,
                    -0.04831
                ],
                [
                    -0.04832,
                    1.25006,
                    -0.09328
                ],
                [
                    -0.09322,
                    -0.04837,
                    1.25002
                ]
            ],
            [
                [
                    1.25014,
                    0.0932,
                    0.04831
                ],
                [
                    0.0484,
                    1.25002,
                    -0.09322
                ],
                [
                    0.09327,
                    -0.0483,
                    1.25008
                ]
            ],
            [
                [
                    1.25015,
                    0.09308,
                    -0.04836
                ],
                [
                    0.04832,
                    1.25006,
                    0.09328
                ],
                [
                    -0.09327,
                    0.0483,
                    1.25008
                ]
            ],
            [
                [
                    1.25015,
                    -0.09308,
                    0.04836
                ],
                [
                    -0.0484,
                    1.25002,
                    0.09322
                ],
                [
                    0.09322,
                    0.04837,
                    1.25002
                ]
            ],
            [
                [
                    2.27558,
                    -0.63105,
                    -0.2367
                ],
                [
                    -0.23658,
                    2.27544,
                    -0.63113
                ],
                [
                    -0.63077,
                    -0.23624,
                    2.27503
                ]
            ],
            [
                [
                    2.27558,
                    0.63105,
                    0.2367
                ],
                [
                    0.23611,
                    2.27513,
                    -0.63068
                ],
                [
                    0.63101,
                    -0.23658,
                    2.27556
                ]
            ],
            [
                [
                    2.275,
                    0.63074,
                    -0.2362
                ],
                [
                    0.23658,
                    2.27544,
                    0.63113
                ],
                [
                    -0.63101,
                    0.23658,
                    2.27556
                ]
            ],
            [
                [
                    2.275,
                    -0.63074,
                    0.2362
                ],
                [
                    -0.23611,
                    2.27513,
                    0.63068
                ],
                [
                    0.63077,
                    0.23624,
                    2.27503
                ]
            ],
            [
                [
                    -1.31421,
                    1.21112,
                    -3e-05
                ],
                [
                    0.15723,
                    -4.38251,
                    0.00041
                ],
                [
                    0.0,
                    -0.0,
                    -1.35384
                ]
            ],
            [
                [
                    -1.31421,
                    -1.21112,
                    3e-05
                ],
                [
                    -0.15723,
                    -4.38251,
                    -0.00041
                ],
                [
                    -0.0,
                    -0.0,
                    -1.3542
                ]
            ],
            [
                [
                    -4.38259,
                    0.00031,
                    0.15726
                ],
                [
                    0.0,
                    -1.35412,
                    -0.0
                ],
                [
                    1.21112,
                    0.00025,
                    -1.31416
                ]
            ],
            [
                [
                    -4.38259,
                    -0.00031,
                    -0.15726
                ],
                [
                    0.0,
                    -1.35389,
                    -0.0
                ],
                [
                    -1.21112,
                    -0.00025,
                    -1.31416
                ]
            ],
            [
                [
                    -1.3542,
                    0.0,
                    0.0
                ],
                [
                    0.00012,
                    -1.31413,
                    1.21113
                ],
                [
                    -0.00021,
                    0.15724,
                    -4.38251
                ]
            ],
            [
                [
                    -1.35391,
                    0.0,
                    -0.0
                ],
                [
                    -0.00012,
                    -1.31413,
                    -1.21113
                ],
                [
                    0.00021,
                    -0.15724,
                    -4.38251
                ]
            ]
        ]
    },
    "band_gap": 1.5975000000000001,
    "is_direct": false,
    "formula": "Cs2Pb2O3"
}