{
    "mp_id": "mp-17914",
    "nelements": 3,
    "nsites": 24,
    "elements": [
        "Ca",
        "Ga",
        "O"
    ],
    "structure": {
        "@module": "pymatgen.core.structure",
        "@class": "Structure",
        "charge": null,
        "lattice": {
            "matrix": [
                [
                    6.55094657,
                    -4.56322623,
                    -0.00079773
                ],
                [
                    6.55094657,
                    4.56322623,
                    -0.00079773
                ],
                [
                    -1.43105471,
                    0.0,
                    5.42956507
                ]
            ],
            "a": 7.983604150102129,
            "b": 7.983604150102129,
            "c": 5.6149883733074,
            "alpha": 102.07692412257178,
            "beta": 102.07692412257178,
            "gamma": 69.7202165102481,
            "volume": 324.60645841186766
        },
        "sites": [
            {
                "species": [
                    {
                        "element": "Ca",
                        "occu": 1
                    }
                ],
                "abc": [
                    0.70730347,
                    0.29269653,
                    0.75
                ],
                "xyz": [
                    5.4776555375000004,
                    -1.8919452637480363,
                    4.0713760725
                ],
                "label": "Ca",
                "properties": {}
            },
            {
                "species": [
                    {
                        "element": "Ca",
                        "occu": 1
                    }
                ],
                "abc": [
                    0.29269653,
                    0.70730347,
                    0.25
                ],
                "xyz": [
                    6.1931828925,
                    1.8919452637480363,
                    1.3565935375
                ],
                "label": "Ca",
                "properties": {}
            },
            {
                "species": [
                    {
                        "element": "Ga",
                        "occu": 1
                    }
                ],
                "abc": [
                    0.57422566,
                    0.74449556,
                    0.81523838
                ],
                "xyz": [
                    7.472221529473444,
                    0.7769800738594772,
                    4.425337848292556
                ],
                "label": "Ga",
                "properties": {}
            },
            {
                "species": [
                    {
                        "element": "Ga",
                        "occu": 1
                    }
                ],
                "abc": [
                    0.25550444,
                    0.42577434,
                    0.68476162
                ],
                "xyz": [
                    3.4830895455265543,
                    0.7769800738594768,
                    3.7174142967074433
                ],
                "label": "Ga",
                "properties": {}
            },
            {
                "species": [
                    {
                        "element": "Ga",
                        "occu": 1
                    }
                ],
                "abc": [
                    0.18468743,
                    0.05676682,
                    0.74150545
                ],
                "xyz": [
                    0.5206190241362532,
                    -0.5837306829096003,
                    4.025859475235779
                ],
                "label": "Ga",
                "properties": {}
            },
            {
                "species": [
                    {
                        "element": "Ga",
                        "occu": 1
                    }
                ],
                "abc": [
                    0.94323318,
                    0.81531257,
                    0.75849455
                ],
                "xyz": [
                    10.434692050863747,
                    -0.5837306829096001,
                    4.11689266976422
                ],
                "label": "Ga",
                "properties": {}
            },
            {
                "species": [
                    {
                        "element": "Ga",
                        "occu": 1
                    }
                ],
                "abc": [
                    0.81531257,
                    0.94323318,
                    0.25849455
                ],
                "xyz": [
                    11.150219405863748,
                    0.5837306829096001,
                    1.4021101347642209
                ],
                "label": "Ga",
                "properties": {}
            },
            {
                "species": [
                    {
                        "element": "Ga",
                        "occu": 1
                    }
                ],
                "abc": [
                    0.05676682,
                    0.18468743,
                    0.24150545
                ],
                "xyz": [
                    1.2361463791362532,
                    0.5837306829096003,
                    1.311076940235779
                ],
                "label": "Ga",
                "properties": {}
            },
            {
                "species": [
                    {
                        "element": "Ga",
                        "occu": 1
                    }
                ],
                "abc": [
                    0.74449556,
                    0.57422566,
                    0.31523838
                ],
                "xyz": [
                    8.187748884473445,
                    -0.7769800738594772,
                    1.710555313292556
                ],
                "label": "Ga",
                "properties": {}
            },
            {
                "species": [
                    {
                        "element": "Ga",
                        "occu": 1
                    }
                ],
                "abc": [
                    0.42577434,
                    0.25550444,
                    0.18476162
                ],
                "xyz": [
                    4.198616900526554,
                    -0.7769800738594768,
                    1.0026317617074438
                ],
                "label": "Ga",
                "properties": {}
            },
            {
                "species": [
                    {
                        "element": "O",
                        "occu": 1
                    }
                ],
                "abc": [
                    0.03735436,
                    0.96264564,
                    0.25
                ],
                "xyz": [
                    6.193182892499999,
                    4.222313439286275,
                    1.3565935375
                ],
                "label": "O",
                "properties": {}
            },
            {
                "species": [
                    {
                        "element": "O",
                        "occu": 1
                    }
                ],
                "abc": [
                    0.96264564,
                    0.03735436,
                    0.75
                ],
                "xyz": [
                    5.4776555375,
                    -4.222313439286275,
                    4.0713760725
                ],
                "label": "O",
                "properties": {}
            },
            {
                "species": [
                    {
                        "element": "O",
                        "occu": 1
                    }
                ],
                "abc": [
                    0.36365486,
                    0.86144028,
                    0.63312693
                ],
                "xyz": [
                    7.119493530102329,
                    2.271507485455566,
                    3.4366265688583026
                ],
                "label": "O",
                "properties": {}
            },
            {
                "species": [
                    {
                        "element": "O",
                        "occu": 1
                    }
                ],
                "abc": [
                    0.13855972,
                    0.63634514,
                    0.86687307
                ],
                "xyz": [
                    3.8358175448976697,
                    2.271507485455566,
                    4.706125576141697
                ],
                "label": "O",
                "properties": {}
            },
            {
                "species": [
                    {
                        "element": "O",
                        "occu": 1
                    }
                ],
                "abc": [
                    0.63634514,
                    0.13855972,
                    0.36687307
                ],
                "xyz": [
                    4.5513448998976695,
                    -2.271507485455566,
                    1.991343041141697
                ],
                "label": "O",
                "properties": {}
            },
            {
                "species": [
                    {
                        "element": "O",
                        "occu": 1
                    }
                ],
                "abc": [
                    0.86144028,
                    0.36365486,
                    0.13312693
                ],
                "xyz": [
                    7.835020885102329,
                    -2.271507485455566,
                    0.7218440338583029
                ],
                "label": "O",
                "properties": {}
            },
            {
                "species": [
                    {
                        "element": "O",
                        "occu": 1
                    }
                ],
                "abc": [
                    0.45398228,
                    0.31908474,
                    0.9032035
                ],
                "xyz": [
                    3.7717871202856363,
                    -0.615567992890474,
                    4.90338547594788
                ],
                "label": "O",
                "properties": {}
            },
            {
                "species": [
                    {
                        "element": "O",
                        "occu": 1
                    }
                ],
                "abc": [
                    0.68091526,
                    0.54601772,
                    0.5967965
                ],
                "xyz": [
                    7.183523954714364,
                    -0.6155679928904743,
                    3.239366669052119
                ],
                "label": "O",
                "properties": {}
            },
            {
                "species": [
                    {
                        "element": "O",
                        "occu": 1
                    }
                ],
                "abc": [
                    0.54601772,
                    0.68091526,
                    0.0967965
                ],
                "xyz": [
                    7.8990513097143635,
                    0.6155679928904743,
                    0.5245841340521196
                ],
                "label": "O",
                "properties": {}
            },
            {
                "species": [
                    {
                        "element": "O",
                        "occu": 1
                    }
                ],
                "abc": [
                    0.31908474,
                    0.45398228,
                    0.4032035
                ],
                "xyz": [
                    4.487314475285636,
                    0.615567992890474,
                    2.1886029409478804
                ],
                "label": "O",
                "properties": {}
            },
            {
                "species": [
                    {
                        "element": "O",
                        "occu": 1
                    }
                ],
                "abc": [
                    0.13053842,
                    0.25522786,
                    0.57807548
                ],
                "xyz": [
                    1.6998766503981486,
                    0.5689861232120111,
                    3.138390696696939
                ],
                "label": "O",
                "properties": {}
            },
            {
                "species": [
                    {
                        "element": "O",
                        "occu": 1
                    }
                ],
                "abc": [
                    0.74477214,
                    0.86946158,
                    0.92192452
                ],
                "xyz": [
                    9.255434424601852,
                    0.5689861232120106,
                    5.004361448303061
                ],
                "label": "O",
                "properties": {}
            },
            {
                "species": [
                    {
                        "element": "O",
                        "occu": 1
                    }
                ],
                "abc": [
                    0.86946158,
                    0.74477214,
                    0.42192452
                ],
                "xyz": [
                    9.97096177960185,
                    -0.5689861232120106,
                    2.289578913303061
                ],
                "label": "O",
                "properties": {}
            },
            {
                "species": [
                    {
                        "element": "O",
                        "occu": 1
                    }
                ],
                "abc": [
                    0.25522786,
                    0.13053842,
                    0.07807548
                ],
                "xyz": [
                    2.4154040053981487,
                    -0.5689861232120111,
                    0.42360816169693916
                ],
                "label": "O",
                "properties": {}
            }
        ]
    },
    "spacegroup": {
        "source": "spglib",
        "symbol": "C2/c",
        "number": 15,
        "point_group": "2/m",
        "crystal_system": "monoclinic",
        "hall": "-C 2yc"
    },
    "dielectric": {
        "epsilon_ionic": [
            [
                6.62525937,
                0.0,
                3.93925383
            ],
            [
                0.0,
                4.02442983,
                -0.0
            ],
            [
                3.93925383,
                -0.0,
                16.29347743
            ]
        ],
        "epsilon_ionic_avg": 8.981055543333333,
        "epsilon_ionic_eig": [
            5.223477858056757,
            17.695258941943244,
            4.02442983
        ],
        "epsilon_electronic": [
            [
                3.30807219,
                0.0,
                0.03963878
            ],
            [
                0.0,
                3.36262642,
                0.0
            ],
            [
                0.03963617,
                0.0,
                3.48075847
            ]
        ],
        "epsilon_electronic_avg": 3.3838190266666666,
        "epsilon_electronic_eig": [
            3.2994086605092097,
            3.48942199949079,
            3.36262642
        ]
    },
    "phonon": {
        "lowest_freq": -0.15171239364654543,
        "frequency": [
            -0.15171239364654543,
            -0.056347173746336694,
            -0.046792369162406464,
            2.3864047984569443,
            2.535447215708474,
            2.5556403966532795,
            2.7676989816301907,
            2.8899473191524887,
            3.032259218398449,
            3.583731323238025,
            3.8610635363348718,
            3.949008107852126,
            4.000255529241236,
            4.071268713510342,
            4.124658142240307,
            4.766866595929305,
            4.830496853278538,
            5.1846941144256515,
            5.269243272904679,
            5.304551341349277,
            5.308013776203841,
            5.527988464292104,
            6.02070306296427,
            6.246840800032871,
            6.247950037252874,
            6.360196606192784,
            6.443342599139211,
            6.852574923324651,
            7.0724160295013,
            7.233587776796645,
            7.262760268302145,
            7.880675821922733,
            8.127883339781693,
            8.173986669358392,
            8.587993686870192,
            8.710241975930726,
            8.760670197823178,
            8.916411974771686,
            9.207783826045292,
            9.377544746114403,
            9.45690596962601,
            10.245107442997522,
            10.606937206683956,
            11.127414005434884,
            13.961987921161617,
            14.129123443602376,
            14.654343716492141,
            14.877490605513797,
            14.975802162841592,
            15.102100107313461,
            15.296169489059464,
            15.619186572481459,
            15.715380781732165,
            16.938960319460335,
            16.972962658661245,
            17.14577235037364,
            18.339627805051002,
            18.45718607832543,
            18.707776398331777,
            18.76588537908441,
            19.058340977990188,
            19.30551672327113,
            19.421498540530298,
            19.761202222976834,
            20.486187333515904,
            21.019441265497065,
            21.14291440253922,
            21.820475099475104,
            22.44830831595965,
            22.532243517470395,
            23.133472331115193,
            23.142780674026742
        ]
    },
    "born_effective_charge": {
        "avg_abs_trace": 2.236431527777778,
        "tensors": [
            [
                [
                    2.25287,
                    -4e-05,
                    0.0672
                ],
                [
                    -0.0,
                    2.46524,
                    0.0
                ],
                [
                    0.11016,
                    0.00014,
                    2.5765
                ]
            ],
            [
                [
                    2.25287,
                    4e-05,
                    0.0672
                ],
                [
                    -0.0,
                    2.46518,
                    0.0
                ],
                [
                    0.11016,
                    -0.00014,
                    2.5765
                ]
            ],
            [
                [
                    2.64476,
                    -0.27118,
                    0.08576
                ],
                [
                    -0.13605,
                    2.67275,
                    -0.35996
                ],
                [
                    0.08117,
                    0.12455,
                    2.84515
                ]
            ],
            [
                [
                    2.64458,
                    0.27142,
                    0.08587
                ],
                [
                    0.13605,
                    2.67275,
                    0.35996
                ],
                [
                    0.08125,
                    -0.12459,
                    2.84531
                ]
            ],
            [
                [
                    2.72318,
                    -0.08011,
                    -0.00091
                ],
                [
                    0.06364,
                    2.69624,
                    0.13962
                ],
                [
                    -0.00673,
                    -0.20071,
                    2.89852
                ]
            ],
            [
                [
                    2.72326,
                    0.0801,
                    -0.00098
                ],
                [
                    -0.06364,
                    2.69624,
                    -0.13962
                ],
                [
                    -0.00705,
                    0.2005,
                    2.89854
                ]
            ],
            [
                [
                    2.72326,
                    -0.0801,
                    -0.00098
                ],
                [
                    0.06379,
                    2.69615,
                    0.13961
                ],
                [
                    -0.00705,
                    -0.2005,
                    2.89854
                ]
            ],
            [
                [
                    2.72318,
                    0.08011,
                    -0.00091
                ],
                [
                    -0.06379,
                    2.69615,
                    -0.13961
                ],
                [
                    -0.00673,
                    0.20071,
                    2.89852
                ]
            ],
            [
                [
                    2.64476,
                    0.27118,
                    0.08576
                ],
                [
                    0.1361,
                    2.67274,
                    0.35996
                ],
                [
                    0.08117,
                    -0.12455,
                    2.84515
                ]
            ],
            [
                [
                    2.64458,
                    -0.27142,
                    0.08587
                ],
                [
                    -0.1361,
                    2.67274,
                    -0.35996
                ],
                [
                    0.08125,
                    0.12459,
                    2.84531
                ]
            ],
            [
                [
                    -2.35238,
                    6e-05,
                    -0.10376
                ],
                [
                    -0.0,
                    -1.84753,
                    0.0
                ],
                [
                    -0.10588,
                    3e-05,
                    -1.73617
                ]
            ],
            [
                [
                    -2.35238,
                    -6e-05,
                    -0.10376
                ],
                [
                    0.0,
                    -1.84768,
                    0.0
                ],
                [
                    -0.10588,
                    -3e-05,
                    -1.73617
                ]
            ],
            [
                [
                    -1.2524,
                    0.1936,
                    -0.25122
                ],
                [
                    0.14807,
                    -2.53384,
                    0.1185
                ],
                [
                    -0.25919,
                    0.06169,
                    -1.83642
                ]
            ],
            [
                [
                    -1.25251,
                    -0.19346,
                    -0.2515
                ],
                [
                    -0.14807,
                    -2.53384,
                    -0.1185
                ],
                [
                    -0.25928,
                    -0.06179,
                    -1.83649
                ]
            ],
            [
                [
                    -1.25251,
                    0.19346,
                    -0.2515
                ],
                [
                    0.14804,
                    -2.53388,
                    0.11849
                ],
                [
                    -0.25928,
                    0.06179,
                    -1.83649
                ]
            ],
            [
                [
                    -1.2524,
                    -0.1936,
                    -0.25122
                ],
                [
                    -0.14804,
                    -2.53388,
                    -0.11849
                ],
                [
                    -0.25919,
                    -0.06169,
                    -1.83642
                ]
            ],
            [
                [
                    -1.7843,
                    0.20534,
                    0.37359
                ],
                [
                    0.20113,
                    -1.7456,
                    0.31833
                ],
                [
                    0.35454,
                    0.34607,
                    -2.1936
                ]
            ],
            [
                [
                    -1.78454,
                    -0.20569,
                    0.37363
                ],
                [
                    -0.20113,
                    -1.7456,
                    -0.31833
                ],
                [
                    0.35452,
                    -0.34581,
                    -2.1935
                ]
            ],
            [
                [
                    -1.78454,
                    0.20569,
                    0.37363
                ],
                [
                    0.20106,
                    -1.74551,
                    0.31834
                ],
                [
                    0.35452,
                    0.34581,
                    -2.1935
                ]
            ],
            [
                [
                    -1.7843,
                    -0.20534,
                    0.37359
                ],
                [
                    -0.20106,
                    -1.74551,
                    -0.31834
                ],
                [
                    0.35454,
                    -0.34607,
                    -2.1936
                ]
            ],
            [
                [
                    -2.28126,
                    -0.41889,
                    -0.18887
                ],
                [
                    -0.33647,
                    -1.39832,
                    0.2529
                ],
                [
                    -0.1718,
                    0.24357,
                    -2.13389
                ]
            ],
            [
                [
                    -2.28127,
                    0.41893,
                    -0.18881
                ],
                [
                    0.33647,
                    -1.39832,
                    -0.2529
                ],
                [
                    -0.17171,
                    -0.24373,
                    -2.13395
                ]
            ],
            [
                [
                    -2.28127,
                    -0.41893,
                    -0.18881
                ],
                [
                    -0.33652,
                    -1.39834,
                    0.25295
                ],
                [
                    -0.17171,
                    0.24373,
                    -2.13395
                ]
            ],
            [
                [
                    -2.28126,
                    0.41889,
                    -0.18887
                ],
                [
                    0.33652,
                    -1.39834,
                    -0.25295
                ],
                [
                    -0.1718,
                    -0.24357,
                    -2.13389
                ]
            ]
        ]
    },
    "band_gap": 2.6824,
    "is_direct": true,
    "formula": "CaGa4O7"
}