{
    "mp_id": "mp-1214081",
    "nelements": 4,
    "nsites": 20,
    "elements": [
        "Ca",
        "O",
        "Sc",
        "Ta"
    ],
    "structure": {
        "@module": "pymatgen.core.structure",
        "@class": "Structure",
        "charge": null,
        "lattice": {
            "matrix": [
                [
                    5.46694262,
                    0.0,
                    0.0005095
                ],
                [
                    0.0,
                    5.64340508,
                    0.0
                ],
                [
                    -5.45386271,
                    0.0,
                    7.83047349
                ]
            ],
            "a": 5.466942643741812,
            "b": 5.64340508,
            "c": 9.542585264859902,
            "alpha": 90.0,
            "beta": 124.85156576947064,
            "gamma": 90.0,
            "volume": 241.60279459952235
        },
        "sites": [
            {
                "species": [
                    {
                        "element": "Ca",
                        "occu": 1
                    }
                ],
                "abc": [
                    0.76472362,
                    0.05172609,
                    0.25150988
                ],
                "xyz": [
                    2.8089997949701093,
                    0.29191127907453723,
                    1.9698310744974712
                ],
                "label": "Ca",
                "properties": {}
            },
            {
                "species": [
                    {
                        "element": "Ca",
                        "occu": 1
                    }
                ],
                "abc": [
                    0.23527638,
                    0.94827391,
                    0.74849012
                ],
                "xyz": [
                    -2.79591988497011,
                    5.351493800925463,
                    5.861151915502529
                ],
                "label": "Ca",
                "properties": {}
            },
            {
                "species": [
                    {
                        "element": "Ca",
                        "occu": 1
                    }
                ],
                "abc": [
                    0.23527638,
                    0.55172609,
                    0.24849012
                ],
                "xyz": [
                    -0.06898852997010962,
                    3.113613819074537,
                    1.945915170502529
                ],
                "label": "Ca",
                "properties": {}
            },
            {
                "species": [
                    {
                        "element": "Ca",
                        "occu": 1
                    }
                ],
                "abc": [
                    0.76472362,
                    0.44827391,
                    0.75150988
                ],
                "xyz": [
                    0.08206843997010971,
                    2.529791260925463,
                    5.885067819497471
                ],
                "label": "Ca",
                "properties": {}
            },
            {
                "species": [
                    {
                        "element": "Sc",
                        "occu": 1
                    }
                ],
                "abc": [
                    0.0,
                    0.5,
                    0.5
                ],
                "xyz": [
                    -2.726931355,
                    2.82170254,
                    3.915236745
                ],
                "label": "Sc",
                "properties": {}
            },
            {
                "species": [
                    {
                        "element": "Sc",
                        "occu": 1
                    }
                ],
                "abc": [
                    0.0,
                    0.0,
                    0.0
                ],
                "xyz": [
                    0.0,
                    0.0,
                    0.0
                ],
                "label": "Sc",
                "properties": {}
            },
            {
                "species": [
                    {
                        "element": "Ta",
                        "occu": 1
                    }
                ],
                "abc": [
                    0.5,
                    0.5,
                    0.0
                ],
                "xyz": [
                    2.73347131,
                    2.82170254,
                    0.00025475
                ],
                "label": "Ta",
                "properties": {}
            },
            {
                "species": [
                    {
                        "element": "Ta",
                        "occu": 1
                    }
                ],
                "abc": [
                    0.5,
                    0.0,
                    0.5
                ],
                "xyz": [
                    0.006539955000000042,
                    0.0,
                    3.915491495
                ],
                "label": "Ta",
                "properties": {}
            },
            {
                "species": [
                    {
                        "element": "O",
                        "occu": 1
                    }
                ],
                "abc": [
                    0.6437892,
                    0.46467825,
                    0.24409423
                ],
                "xyz": [
                    2.1883021970525407,
                    2.62236759661551,
                    1.9117014076743626
                ],
                "label": "O",
                "properties": {}
            },
            {
                "species": [
                    {
                        "element": "O",
                        "occu": 1
                    }
                ],
                "abc": [
                    0.3562108,
                    0.53532175,
                    0.75590577
                ],
                "xyz": [
                    -2.1752222870525406,
                    3.0210374833844904,
                    5.919281582325637
                ],
                "label": "O",
                "properties": {}
            },
            {
                "species": [
                    {
                        "element": "O",
                        "occu": 1
                    }
                ],
                "abc": [
                    0.3562108,
                    0.96467825,
                    0.25590577
                ],
                "xyz": [
                    0.5517090679474594,
                    5.44407013661551,
                    2.004044837325637
                ],
                "label": "O",
                "properties": {}
            },
            {
                "species": [
                    {
                        "element": "O",
                        "occu": 1
                    }
                ],
                "abc": [
                    0.6437892,
                    0.03532175,
                    0.74409423
                ],
                "xyz": [
                    -0.5386291579474594,
                    0.19933494338448998,
                    5.826938152674362
                ],
                "label": "O",
                "properties": {}
            },
            {
                "species": [
                    {
                        "element": "O",
                        "occu": 1
                    }
                ],
                "abc": [
                    0.15528018,
                    0.80315733,
                    0.44924365
                ],
                "xyz": [
                    -1.60120535635602,
                    4.532542156161236,
                    3.5178696071275484
                ],
                "label": "O",
                "properties": {}
            },
            {
                "species": [
                    {
                        "element": "O",
                        "occu": 1
                    }
                ],
                "abc": [
                    0.84471982,
                    0.19684267,
                    0.55075635
                ],
                "xyz": [
                    1.61428526635602,
                    1.1108629238387635,
                    4.3131133828724515
                ],
                "label": "O",
                "properties": {}
            },
            {
                "species": [
                    {
                        "element": "O",
                        "occu": 1
                    }
                ],
                "abc": [
                    0.84471982,
                    0.30315733,
                    0.05075635
                ],
                "xyz": [
                    4.34121662135602,
                    1.7108396161612365,
                    0.3978766378724515
                ],
                "label": "O",
                "properties": {}
            },
            {
                "species": [
                    {
                        "element": "O",
                        "occu": 1
                    }
                ],
                "abc": [
                    0.15528018,
                    0.69684267,
                    0.94924365
                ],
                "xyz": [
                    -4.32813671135602,
                    3.9325654638387637,
                    7.433106352127549
                ],
                "label": "O",
                "properties": {}
            },
            {
                "species": [
                    {
                        "element": "O",
                        "occu": 1
                    }
                ],
                "abc": [
                    0.2508656,
                    0.2913012,
                    0.44487363
                ],
                "xyz": [
                    -1.0548118607874652,
                    1.643930671890096,
                    3.483698982138269
                ],
                "label": "O",
                "properties": {}
            },
            {
                "species": [
                    {
                        "element": "O",
                        "occu": 1
                    }
                ],
                "abc": [
                    0.7491344,
                    0.7086988,
                    0.55512637
                ],
                "xyz": [
                    1.067891770787465,
                    3.999474408109904,
                    4.347284007861731
                ],
                "label": "O",
                "properties": {}
            },
            {
                "species": [
                    {
                        "element": "O",
                        "occu": 1
                    }
                ],
                "abc": [
                    0.7491344,
                    0.7913012,
                    0.05512637
                ],
                "xyz": [
                    3.794823125787465,
                    4.465633211890096,
                    0.4320472628617313
                ],
                "label": "O",
                "properties": {}
            },
            {
                "species": [
                    {
                        "element": "O",
                        "occu": 1
                    }
                ],
                "abc": [
                    0.2508656,
                    0.2086988,
                    0.94487363
                ],
                "xyz": [
                    -3.7817432157874653,
                    1.1777718681099039,
                    7.398935727138269
                ],
                "label": "O",
                "properties": {}
            }
        ]
    },
    "spacegroup": {
        "source": "spglib",
        "symbol": "P2_1/c",
        "number": 14,
        "point_group": "2/m",
        "crystal_system": "monoclinic",
        "hall": "-P 2ybc"
    },
    "dielectric": {
        "epsilon_ionic": [
            [
                19.48919884,
                0.0,
                -0.13110523
            ],
            [
                0.0,
                19.06063859,
                1e-08
            ],
            [
                -0.13110523,
                1e-08,
                25.25843868
            ]
        ],
        "epsilon_ionic_avg": 21.269425370000004,
        "epsilon_ionic_eig": [
            25.261416492405637,
            19.486221027594375,
            19.06063859
        ],
        "epsilon_electronic": [
            [
                4.6268839,
                0.0,
                0.02612348
            ],
            [
                0.0,
                4.67047775,
                0.0
            ],
            [
                0.02612232,
                0.0,
                4.58630785
            ]
        ],
        "epsilon_electronic_avg": 4.627889833333334,
        "epsilon_electronic_eig": [
            4.639671694906304,
            4.573520055093696,
            4.67047775
        ]
    },
    "phonon": {
        "lowest_freq": -0.038156990271228354,
        "frequency": [
            -0.038156990271228354,
            -0.025498633284365725,
            -0.01765405121195564,
            2.873141823696822,
            3.1685054222235123,
            4.159925064779542,
            4.4363060630391,
            4.479685021804147,
            4.495746270190845,
            4.895869401322678,
            5.136210110604572,
            5.239780833713947,
            5.38734787796779,
            5.425800736797616,
            5.7728981491831135,
            5.826742095055947,
            6.309502571585887,
            6.316477045616638,
            6.70067406086208,
            6.740470668933464,
            6.926854339003209,
            7.201199312393617,
            7.217890742165503,
            7.349299854490182,
            7.740074817675053,
            7.876103519551806,
            8.281680447892999,
            8.406733864732582,
            8.487445636991083,
            8.81915755740468,
            9.031907946816125,
            9.043197193088735,
            9.610485273399899,
            9.68743768107897,
            9.879183061947911,
            10.764939021525718,
            10.890898407109706,
            10.971215738877905,
            11.155242279170505,
            11.451124819048559,
            11.60038335044102,
            12.689006039893085,
            12.793285449459898,
            12.961565097469036,
            13.062351156263261,
            13.216160497837652,
            14.104347641107083,
            14.431469142537546,
            15.789101698695656,
            16.167346664916547,
            16.224561522585965,
            16.477230653582584,
            16.77165994395063,
            16.914655246672726,
            17.06321782162462,
            17.215340344711862,
            17.398784666946508,
            21.672350595136553,
            23.154042222438573,
            23.672264705673058
        ]
    },
    "born_effective_charge": {
        "avg_abs_trace": 3.226598333333333,
        "tensors": [
            [
                [
                    2.46389,
                    -0.12527,
                    0.0579
                ],
                [
                    -0.17954,
                    2.40855,
                    -0.03316
                ],
                [
                    -0.0272,
                    -0.09501,
                    2.34333
                ]
            ],
            [
                [
                    2.46393,
                    -0.1253,
                    0.05787
                ],
                [
                    -0.17922,
                    2.40856,
                    -0.03305
                ],
                [
                    -0.02714,
                    -0.09496,
                    2.34335
                ]
            ],
            [
                [
                    2.46393,
                    0.1253,
                    0.05787
                ],
                [
                    0.17954,
                    2.40855,
                    0.03316
                ],
                [
                    -0.02714,
                    0.09496,
                    2.34335
                ]
            ],
            [
                [
                    2.46389,
                    0.12527,
                    0.0579
                ],
                [
                    0.17922,
                    2.40856,
                    0.03305
                ],
                [
                    -0.0272,
                    0.09501,
                    2.34333
                ]
            ],
            [
                [
                    4.63194,
                    0.42733,
                    -0.60367
                ],
                [
                    -0.3054,
                    4.81047,
                    0.0974
                ],
                [
                    0.47699,
                    0.25935,
                    4.66509
                ]
            ],
            [
                [
                    4.63194,
                    -0.42733,
                    -0.60367
                ],
                [
                    0.3054,
                    4.81047,
                    -0.0974
                ],
                [
                    0.47699,
                    -0.25935,
                    4.66509
                ]
            ],
            [
                [
                    6.61073,
                    0.43622,
                    0.59957
                ],
                [
                    -0.18089,
                    6.66079,
                    -0.08976
                ],
                [
                    -0.34132,
                    -0.22189,
                    6.58836
                ]
            ],
            [
                [
                    6.61073,
                    -0.43622,
                    0.59957
                ],
                [
                    0.18089,
                    6.66079,
                    0.08976
                ],
                [
                    -0.34132,
                    0.22189,
                    6.58836
                ]
            ],
            [
                [
                    -2.01619,
                    0.03254,
                    0.23859
                ],
                [
                    0.14642,
                    -1.7524,
                    0.10633
                ],
                [
                    0.25355,
                    0.12053,
                    -4.30309
                ]
            ],
            [
                [
                    -2.01622,
                    0.03256,
                    0.23856
                ],
                [
                    0.14632,
                    -1.75249,
                    0.10632
                ],
                [
                    0.2536,
                    0.12056,
                    -4.30309
                ]
            ],
            [
                [
                    -2.01622,
                    -0.03256,
                    0.23856
                ],
                [
                    -0.14642,
                    -1.7524,
                    -0.10633
                ],
                [
                    0.2536,
                    -0.12056,
                    -4.30309
                ]
            ],
            [
                [
                    -2.01619,
                    -0.03254,
                    0.23859
                ],
                [
                    -0.14632,
                    -1.75249,
                    -0.10632
                ],
                [
                    0.25355,
                    -0.12053,
                    -4.30309
                ]
            ],
            [
                [
                    -3.21292,
                    -1.21351,
                    -0.15352
                ],
                [
                    -1.25166,
                    -3.00939,
                    -0.04546
                ],
                [
                    -0.15948,
                    -0.01478,
                    -1.82819
                ]
            ],
            [
                [
                    -3.21286,
                    -1.21344,
                    -0.15353
                ],
                [
                    -1.25171,
                    -3.00923,
                    -0.04563
                ],
                [
                    -0.1595,
                    -0.01477,
                    -1.82823
                ]
            ],
            [
                [
                    -3.21286,
                    1.21344,
                    -0.15353
                ],
                [
                    1.25166,
                    -3.00939,
                    0.04546
                ],
                [
                    -0.1595,
                    0.01477,
                    -1.82823
                ]
            ],
            [
                [
                    -3.21292,
                    1.21351,
                    -0.15352
                ],
                [
                    1.25171,
                    -3.00923,
                    0.04563
                ],
                [
                    -0.15948,
                    0.01478,
                    -1.82819
                ]
            ],
            [
                [
                    -2.85611,
                    1.22621,
                    -0.14089
                ],
                [
                    1.25913,
                    -3.38253,
                    0.28278
                ],
                [
                    -0.13476,
                    0.26662,
                    -1.83874
                ]
            ],
            [
                [
                    -2.85617,
                    1.22634,
                    -0.14089
                ],
                [
                    1.25946,
                    -3.38232,
                    0.28242
                ],
                [
                    -0.13475,
                    0.26659,
                    -1.83879
                ]
            ],
            [
                [
                    -2.85617,
                    -1.22634,
                    -0.14089
                ],
                [
                    -1.25913,
                    -3.38253,
                    -0.28278
                ],
                [
                    -0.13475,
                    -0.26659,
                    -1.83879
                ]
            ],
            [
                [
                    -2.85611,
                    -1.22621,
                    -0.14089
                ],
                [
                    -1.25946,
                    -3.38232,
                    -0.28242
                ],
                [
                    -0.13476,
                    -0.26662,
                    -1.83874
                ]
            ]
        ]
    },
    "band_gap": 3.9496,
    "is_direct": true,
    "formula": "Ca2ScTaO6"
}