{
    "mp_id": "mp-1209499",
    "nelements": 3,
    "nsites": 14,
    "elements": [
        "Cd",
        "O",
        "Rb"
    ],
    "structure": {
        "@module": "pymatgen.core.structure",
        "@class": "Structure",
        "charge": null,
        "lattice": {
            "matrix": [
                [
                    6.48862755,
                    0.0,
                    0.00063588
                ],
                [
                    0.0,
                    6.75830183,
                    0.0
                ],
                [
                    -3.10168005,
                    0.0,
                    6.15728204
                ]
            ],
            "a": 6.488627581157851,
            "b": 6.75830183,
            "c": 6.894384762447957,
            "alpha": 90.0,
            "beta": 116.73068874941613,
            "gamma": 90.0,
            "volume": 270.02309833405917
        },
        "sites": [
            {
                "species": [
                    {
                        "element": "Rb",
                        "occu": 1
                    }
                ],
                "abc": [
                    0.82187647,
                    0.3547567,
                    0.07697736
                ],
                "xyz": [
                    5.09409116412508,
                    2.397552854814761,
                    0.47449393102435794
                ],
                "label": "Rb",
                "properties": {}
            },
            {
                "species": [
                    {
                        "element": "Rb",
                        "occu": 1
                    }
                ],
                "abc": [
                    0.17812353,
                    0.6452433,
                    0.92302264
                ],
                "xyz": [
                    -1.7071436641250808,
                    4.360748975185238,
                    5.683423988975642
                ],
                "label": "Rb",
                "properties": {}
            },
            {
                "species": [
                    {
                        "element": "Rb",
                        "occu": 1
                    }
                ],
                "abc": [
                    0.17812353,
                    0.8547567,
                    0.42302264
                ],
                "xyz": [
                    -0.1563036391250805,
                    5.776703769814761,
                    2.604782968975642
                ],
                "label": "Rb",
                "properties": {}
            },
            {
                "species": [
                    {
                        "element": "Rb",
                        "occu": 1
                    }
                ],
                "abc": [
                    0.82187647,
                    0.1452433,
                    0.57697736
                ],
                "xyz": [
                    3.5432511391250805,
                    0.9815980601852389,
                    3.553134951024358
                ],
                "label": "Rb",
                "properties": {}
            },
            {
                "species": [
                    {
                        "element": "Cd",
                        "occu": 1
                    }
                ],
                "abc": [
                    0.33446695,
                    0.12128974,
                    0.07421482
                ],
                "xyz": [
                    1.9400408397261315,
                    0.8197126718022241,
                    0.4571742591319988
                ],
                "label": "Cd",
                "properties": {}
            },
            {
                "species": [
                    {
                        "element": "Cd",
                        "occu": 1
                    }
                ],
                "abc": [
                    0.66553305,
                    0.87871026,
                    0.92578518
                ],
                "xyz": [
                    1.4469066602738687,
                    5.938589158197775,
                    5.700743660868001
                ],
                "label": "Cd",
                "properties": {}
            },
            {
                "species": [
                    {
                        "element": "Cd",
                        "occu": 1
                    }
                ],
                "abc": [
                    0.66553305,
                    0.62128974,
                    0.42578518
                ],
                "xyz": [
                    2.997746685273869,
                    4.198863586802224,
                    2.6221026408680013
                ],
                "label": "Cd",
                "properties": {}
            },
            {
                "species": [
                    {
                        "element": "Cd",
                        "occu": 1
                    }
                ],
                "abc": [
                    0.33446695,
                    0.37871026,
                    0.57421482
                ],
                "xyz": [
                    0.38920081472613144,
                    2.559438243197776,
                    3.535815279131999
                ],
                "label": "Cd",
                "properties": {}
            },
            {
                "species": [
                    {
                        "element": "O",
                        "occu": 1
                    }
                ],
                "abc": [
                    0.39555563,
                    0.38104016,
                    0.28099992
                ],
                "xyz": [
                    1.6950413124600106,
                    2.575184410631493,
                    1.7304472865714413
                ],
                "label": "O",
                "properties": {}
            },
            {
                "species": [
                    {
                        "element": "O",
                        "occu": 1
                    }
                ],
                "abc": [
                    0.60444437,
                    0.61895984,
                    0.71900008
                ],
                "xyz": [
                    1.6919061875399892,
                    4.183117419368507,
                    4.427470633428559
                ],
                "label": "O",
                "properties": {}
            },
            {
                "species": [
                    {
                        "element": "O",
                        "occu": 1
                    }
                ],
                "abc": [
                    0.60444437,
                    0.88104016,
                    0.21900008
                ],
                "xyz": [
                    3.242746212539989,
                    5.954335325631492,
                    1.348829613428559
                ],
                "label": "O",
                "properties": {}
            },
            {
                "species": [
                    {
                        "element": "O",
                        "occu": 1
                    }
                ],
                "abc": [
                    0.39555563,
                    0.11895984,
                    0.78099992
                ],
                "xyz": [
                    0.1442012874600107,
                    0.8039665043685071,
                    4.809088306571441
                ],
                "label": "O",
                "properties": {}
            },
            {
                "species": [
                    {
                        "element": "O",
                        "occu": 1
                    }
                ],
                "abc": [
                    0.0,
                    0.0,
                    0.0
                ],
                "xyz": [
                    0.0,
                    0.0,
                    0.0
                ],
                "label": "O",
                "properties": {}
            },
            {
                "species": [
                    {
                        "element": "O",
                        "occu": 1
                    }
                ],
                "abc": [
                    0.0,
                    0.5,
                    0.5
                ],
                "xyz": [
                    -1.550840025,
                    3.379150915,
                    3.07864102
                ],
                "label": "O",
                "properties": {}
            }
        ]
    },
    "spacegroup": {
        "source": "spglib",
        "symbol": "P2_1/c",
        "number": 14,
        "point_group": "2/m",
        "crystal_system": "monoclinic",
        "hall": "-P 2ybc"
    },
    "dielectric": {
        "epsilon_ionic": [
            [
                16.70253218,
                2e-08,
                4.09987137
            ],
            [
                2e-08,
                7.51974845,
                -2e-08
            ],
            [
                4.09987137,
                -2e-08,
                7.04095356
            ]
        ],
        "epsilon_ionic_avg": 10.421078063333336,
        "epsilon_ionic_eig": [
            18.207788214547026,
            5.535697525452982,
            7.519748450000001
        ],
        "epsilon_electronic": [
            [
                5.2484505,
                0.0,
                0.07077285
            ],
            [
                0.0,
                5.2846077,
                0.0
            ],
            [
                0.07077393,
                0.0,
                4.91442851
            ]
        ],
        "epsilon_electronic_avg": 5.149162236666666,
        "epsilon_electronic_eig": [
            5.262827335856126,
            4.9000516741438735,
            5.2846077
        ]
    },
    "phonon": {
        "lowest_freq": -0.05105394627310073,
        "frequency": [
            -0.05105394627310073,
            -0.0425917338670602,
            -0.01469408238604367,
            1.1178778119457198,
            1.2756682030420812,
            1.4633872544473125,
            1.6732003903210975,
            2.0809231493869778,
            2.204119018403081,
            2.4349607110723333,
            2.601452515709379,
            2.6254365468817715,
            2.6703316228423315,
            2.8828291278152576,
            2.883430589538276,
            3.0354614505756374,
            3.0586584208486127,
            3.3286246033154048,
            3.4698875195354755,
            4.06923643335601,
            4.26664195611322,
            4.524810849880723,
            4.9400698258092115,
            4.9984503683756705,
            5.084123134230119,
            5.251585732667286,
            5.328586116000888,
            5.656590924647953,
            5.884040807398088,
            6.352668490891257,
            6.487217176706281,
            7.144698013390665,
            8.946481797818024,
            9.475428311824075,
            10.224427594018898,
            10.377099692740277,
            12.047238750182615,
            12.81949427548277,
            13.854308387646272,
            15.096811162541233,
            15.992823246613636,
            16.09740853510785
        ]
    },
    "born_effective_charge": {
        "avg_abs_trace": 1.9411733333333332,
        "tensors": [
            [
                [
                    1.11055,
                    -0.03569,
                    0.0714
                ],
                [
                    -0.0463,
                    1.19268,
                    0.0366
                ],
                [
                    0.08817,
                    0.03421,
                    1.22041
                ]
            ],
            [
                [
                    1.11055,
                    -0.03569,
                    0.07139
                ],
                [
                    -0.04627,
                    1.19263,
                    0.03669
                ],
                [
                    0.0881,
                    0.03425,
                    1.22043
                ]
            ],
            [
                [
                    1.11055,
                    0.03569,
                    0.07139
                ],
                [
                    0.0463,
                    1.19268,
                    -0.0366
                ],
                [
                    0.0881,
                    -0.03425,
                    1.22043
                ]
            ],
            [
                [
                    1.11055,
                    0.03569,
                    0.0714
                ],
                [
                    0.04627,
                    1.19263,
                    -0.03669
                ],
                [
                    0.08817,
                    -0.03421,
                    1.22041
                ]
            ],
            [
                [
                    2.37225,
                    -0.04166,
                    -0.05185
                ],
                [
                    0.02215,
                    2.24642,
                    0.16526
                ],
                [
                    -0.04878,
                    0.60341,
                    2.04863
                ]
            ],
            [
                [
                    2.37222,
                    -0.04131,
                    -0.05199
                ],
                [
                    0.02197,
                    2.24675,
                    0.16526
                ],
                [
                    -0.04884,
                    0.60327,
                    2.0488
                ]
            ],
            [
                [
                    2.37222,
                    0.04131,
                    -0.05199
                ],
                [
                    -0.02215,
                    2.24642,
                    -0.16526
                ],
                [
                    -0.04884,
                    -0.60327,
                    2.0488
                ]
            ],
            [
                [
                    2.37225,
                    0.04166,
                    -0.05185
                ],
                [
                    -0.02197,
                    2.24675,
                    -0.16526
                ],
                [
                    -0.04878,
                    -0.60341,
                    2.04863
                ]
            ],
            [
                [
                    -2.01345,
                    -0.29056,
                    0.14243
                ],
                [
                    -0.03215,
                    -2.47392,
                    -0.74518
                ],
                [
                    0.17033,
                    -0.46862,
                    -2.40825
                ]
            ],
            [
                [
                    -2.01345,
                    -0.29085,
                    0.14228
                ],
                [
                    -0.0322,
                    -2.4743,
                    -0.74533
                ],
                [
                    0.17014,
                    -0.46811,
                    -2.40825
                ]
            ],
            [
                [
                    -2.01345,
                    0.29085,
                    0.14228
                ],
                [
                    0.03215,
                    -2.47392,
                    0.74518
                ],
                [
                    0.17014,
                    0.46811,
                    -2.40825
                ]
            ],
            [
                [
                    -2.01345,
                    0.29056,
                    0.14243
                ],
                [
                    0.0322,
                    -2.4743,
                    0.74533
                ],
                [
                    0.17033,
                    0.46862,
                    -2.40825
                ]
            ],
            [
                [
                    -2.93866,
                    -0.47813,
                    -0.32366
                ],
                [
                    -0.42445,
                    -1.93027,
                    -0.10423
                ],
                [
                    -0.41913,
                    -0.29332,
                    -1.72177
                ]
            ],
            [
                [
                    -2.93866,
                    0.47813,
                    -0.32366
                ],
                [
                    0.42445,
                    -1.93027,
                    0.10423
                ],
                [
                    -0.41913,
                    0.29332,
                    -1.72177
                ]
            ]
        ]
    },
    "band_gap": 0.6239,
    "is_direct": true,
    "formula": "Rb2Cd2O3"
}