{
    "mp_id": "mp-1186921",
    "nelements": 4,
    "nsites": 34,
    "elements": [
        "Ga",
        "Ge",
        "O",
        "Rb"
    ],
    "structure": {
        "@module": "pymatgen.core.structure",
        "@class": "Structure",
        "charge": null,
        "lattice": {
            "matrix": [
                [
                    9.06095715,
                    -3.35110403,
                    -0.00033302
                ],
                [
                    9.06095715,
                    3.35110403,
                    -0.00033302
                ],
                [
                    -9.02825878,
                    0.0,
                    9.15898744
                ]
            ],
            "a": 9.660788932841909,
            "b": 9.660788932841909,
            "c": 12.860657351967856,
            "alpha": 131.18127210085194,
            "beta": 131.18127210085194,
            "gamma": 40.592815644206254,
            "volume": 556.1906856194475
        },
        "sites": [
            {
                "species": [
                    {
                        "element": "Rb",
                        "occu": 1
                    }
                ],
                "abc": [
                    0.86239579,
                    0.6360241,
                    0.61924623
                ],
                "xyz": [
                    7.986403203018313,
                    -0.7585950826369108,
                    5.671169439045585
                ],
                "label": "Rb",
                "properties": {}
            },
            {
                "species": [
                    {
                        "element": "Rb",
                        "occu": 1
                    }
                ],
                "abc": [
                    0.3639759,
                    0.13760421,
                    0.38075377
                ],
                "xyz": [
                    1.1072523169816866,
                    -0.7585950826369108,
                    3.487151960954417
                ],
                "label": "Rb",
                "properties": {}
            },
            {
                "species": [
                    {
                        "element": "Rb",
                        "occu": 1
                    }
                ],
                "abc": [
                    0.99691586,
                    0.27065699,
                    0.8775692
                ],
                "xyz": [
                    3.5625014433958,
                    -2.4337690260802463,
                    8.037223153420342
                ],
                "label": "Rb",
                "properties": {}
            },
            {
                "species": [
                    {
                        "element": "Rb",
                        "occu": 1
                    }
                ],
                "abc": [
                    0.72934301,
                    0.00308414,
                    0.1224308
                ],
                "xyz": [
                    5.531154076604198,
                    -2.4337690260802463,
                    1.121098246579659
                ],
                "label": "Rb",
                "properties": {}
            },
            {
                "species": [
                    {
                        "element": "Ga",
                        "occu": 1
                    }
                ],
                "abc": [
                    0.43394202,
                    0.72031746,
                    0.70183286
                ],
                "xyz": [
                    4.122367007873771,
                    0.9596738910770231,
                    6.427693958227249
                ],
                "label": "Ga",
                "properties": {}
            },
            {
                "species": [
                    {
                        "element": "Ga",
                        "occu": 1
                    }
                ],
                "abc": [
                    0.27968254,
                    0.56605798,
                    0.29816714
                ],
                "xyz": [
                    4.971288512126228,
                    0.9596738910770233,
                    2.7306274417727514
                ],
                "label": "Ga",
                "properties": {}
            },
            {
                "species": [
                    {
                        "element": "Ga",
                        "occu": 1
                    }
                ],
                "abc": [
                    0.47304449,
                    0.26271243,
                    0.80576488
                ],
                "xyz": [
                    -0.6079919275396684,
                    -0.7048446139042017,
                    7.379745393743609
                ],
                "label": "Ga",
                "properties": {}
            },
            {
                "species": [
                    {
                        "element": "Ga",
                        "occu": 1
                    }
                ],
                "abc": [
                    0.73728757,
                    0.52695551,
                    0.19423512
                ],
                "xyz": [
                    9.701647447539667,
                    -0.7048446139042019,
                    1.7785760062563916
                ],
                "label": "Ga",
                "properties": {}
            },
            {
                "species": [
                    {
                        "element": "Ge",
                        "occu": 1
                    }
                ],
                "abc": [
                    0.42855139,
                    0.70055367,
                    0.93067413
                ],
                "xyz": [
                    1.828405681016818,
                    0.9115079366771885,
                    8.523656652835847
                ],
                "label": "Ge",
                "properties": {}
            },
            {
                "species": [
                    {
                        "element": "Ge",
                        "occu": 1
                    }
                ],
                "abc": [
                    0.29944633,
                    0.57144861,
                    0.06932587
                ],
                "xyz": [
                    7.265249838983182,
                    0.9115079366771885,
                    0.634664747164154
                ],
                "label": "Ge",
                "properties": {}
            },
            {
                "species": [
                    {
                        "element": "Ge",
                        "occu": 1
                    }
                ],
                "abc": [
                    0.73635285,
                    0.26364715,
                    0.5
                ],
                "xyz": [
                    4.54682776,
                    -1.584085976273971,
                    4.5791607
                ],
                "label": "Ge",
                "properties": {}
            },
            {
                "species": [
                    {
                        "element": "Ge",
                        "occu": 1
                    }
                ],
                "abc": [
                    0.9844479,
                    0.0155521,
                    0.0
                ],
                "xyz": [
                    9.06095715,
                    -3.2468706200300743,
                    -0.00033302
                ],
                "label": "Ge",
                "properties": {}
            },
            {
                "species": [
                    {
                        "element": "Ge",
                        "occu": 1
                    }
                ],
                "abc": [
                    0.98770544,
                    0.75714693,
                    0.45178817
                ],
                "xyz": [
                    11.731172045143314,
                    -0.7726255520117955,
                    4.137341103834328
                ],
                "label": "Ge",
                "properties": {}
            },
            {
                "species": [
                    {
                        "element": "Ge",
                        "occu": 1
                    }
                ],
                "abc": [
                    0.24285307,
                    0.01229456,
                    0.54821183
                ],
                "xyz": [
                    -2.637516525143312,
                    -0.7726255520117953,
                    5.020980296165673
                ],
                "label": "Ge",
                "properties": {}
            },
            {
                "species": [
                    {
                        "element": "O",
                        "occu": 1
                    }
                ],
                "abc": [
                    0.28557246,
                    0.99311367,
                    0.69630912
                ],
                "xyz": [
                    5.299661305995255,
                    2.371044200222076,
                    6.37706065638244
                ],
                "label": "O",
                "properties": {}
            },
            {
                "species": [
                    {
                        "element": "O",
                        "occu": 1
                    }
                ],
                "abc": [
                    0.00688633,
                    0.71442754,
                    0.30369088
                ],
                "xyz": [
                    3.793994214004744,
                    2.3710442002220766,
                    2.7812607436175596
                ],
                "label": "O",
                "properties": {}
            },
            {
                "species": [
                    {
                        "element": "O",
                        "occu": 1
                    }
                ],
                "abc": [
                    0.25319043,
                    0.62000582,
                    0.57709338
                ],
                "xyz": [
                    2.701845429925812,
                    1.2292365316950216,
                    5.285300227311972
                ],
                "label": "O",
                "properties": {}
            },
            {
                "species": [
                    {
                        "element": "O",
                        "occu": 1
                    }
                ],
                "abc": [
                    0.37999418,
                    0.74680957,
                    0.42290662
                ],
                "xyz": [
                    6.3918100900741885,
                    1.229236531695022,
                    3.873021172688028
                ],
                "label": "O",
                "properties": {}
            },
            {
                "species": [
                    {
                        "element": "O",
                        "occu": 1
                    }
                ],
                "abc": [
                    0.81795068,
                    0.05810807,
                    0.53984587
                ],
                "xyz": [
                    3.0640625789583247,
                    -2.5463116325367183,
                    4.944149797780947
                ],
                "label": "O",
                "properties": {}
            },
            {
                "species": [
                    {
                        "element": "O",
                        "occu": 1
                    }
                ],
                "abc": [
                    0.94189193,
                    0.18204932,
                    0.46015413
                ],
                "xyz": [
                    6.029592941041677,
                    -2.5463116325367183,
                    4.214171602219052
                ],
                "label": "O",
                "properties": {}
            },
            {
                "species": [
                    {
                        "element": "O",
                        "occu": 1
                    }
                ],
                "abc": [
                    0.70122723,
                    0.49833848,
                    0.6623065
                ],
                "xyz": [
                    4.889739023243256,
                    -0.6799013077666627,
                    6.0656574355576165
                ],
                "label": "O",
                "properties": {}
            },
            {
                "species": [
                    {
                        "element": "O",
                        "occu": 1
                    }
                ],
                "abc": [
                    0.50166152,
                    0.29877277,
                    0.3376935
                ],
                "xyz": [
                    4.203916496756744,
                    -0.6799013077666625,
                    3.0926639644423846
                ],
                "label": "O",
                "properties": {}
            },
            {
                "species": [
                    {
                        "element": "O",
                        "occu": 1
                    }
                ],
                "abc": [
                    0.49187977,
                    0.79346547,
                    0.8941313
                ],
                "xyz": [
                    3.5740093828986517,
                    1.010645054660371,
                    8.188909300739047
                ],
                "label": "O",
                "properties": {}
            },
            {
                "species": [
                    {
                        "element": "O",
                        "occu": 1
                    }
                ],
                "abc": [
                    0.20653453,
                    0.50812023,
                    0.1058687
                ],
                "xyz": [
                    5.519646137101347,
                    1.010645054660371,
                    0.9694120992609528
                ],
                "label": "O",
                "properties": {}
            },
            {
                "species": [
                    {
                        "element": "O",
                        "occu": 1
                    }
                ],
                "abc": [
                    0.34907536,
                    0.15161032,
                    0.60741078
                ],
                "xyz": [
                    -0.9471702155030366,
                    -0.6617258913281112,
                    5.56310096659545
                ],
                "label": "O",
                "properties": {}
            },
            {
                "species": [
                    {
                        "element": "O",
                        "occu": 1
                    }
                ],
                "abc": [
                    0.84838968,
                    0.65092464,
                    0.39258922
                ],
                "xyz": [
                    10.040825735503036,
                    -0.6617258913281114,
                    3.5952204334045508
                ],
                "label": "O",
                "properties": {}
            },
            {
                "species": [
                    {
                        "element": "O",
                        "occu": 1
                    }
                ],
                "abc": [
                    0.55292809,
                    0.40907125,
                    0.83194907
                ],
                "xyz": [
                    1.2055833023279465,
                    -0.48207923626706517,
                    7.619490717829475
                ],
                "label": "O",
                "properties": {}
            },
            {
                "species": [
                    {
                        "element": "O",
                        "occu": 1
                    }
                ],
                "abc": [
                    0.59092875,
                    0.44707191,
                    0.16805093
                ],
                "xyz": [
                    7.888072217672054,
                    -0.48207923626706517,
                    1.538830682170526
                ],
                "label": "O",
                "properties": {}
            },
            {
                "species": [
                    {
                        "element": "O",
                        "occu": 1
                    }
                ],
                "abc": [
                    0.24167636,
                    0.46663339,
                    0.87848684
                ],
                "xyz": [
                    -1.513242232667242,
                    0.7538544098098309,
                    8.045814052452346
                ],
                "label": "O",
                "properties": {}
            },
            {
                "species": [
                    {
                        "element": "O",
                        "occu": 1
                    }
                ],
                "abc": [
                    0.53336661,
                    0.75832364,
                    0.12151316
                ],
                "xyz": [
                    10.606897752667244,
                    0.7538544098098308,
                    1.1125073475476555
                ],
                "label": "O",
                "properties": {}
            },
            {
                "species": [
                    {
                        "element": "O",
                        "occu": 1
                    }
                ],
                "abc": [
                    0.12469574,
                    0.87121775,
                    0.87853783
                ],
                "xyz": [
                    1.092262580737306,
                    2.5016729161947002,
                    8.046185291424415
                ],
                "label": "O",
                "properties": {}
            },
            {
                "species": [
                    {
                        "element": "O",
                        "occu": 1
                    }
                ],
                "abc": [
                    0.12878225,
                    0.87530426,
                    0.12146217
                ],
                "xyz": [
                    8.001392939262695,
                    2.5016729161947002,
                    1.1121361085755848
                ],
                "label": "O",
                "properties": {}
            },
            {
                "species": [
                    {
                        "element": "O",
                        "occu": 1
                    }
                ],
                "abc": [
                    0.73249285,
                    0.02937589,
                    0.88184003
                ],
                "xyz": [
                    -1.0582199863384725,
                    -2.356218078217349,
                    8.07650804133143
                ],
                "label": "O",
                "properties": {}
            },
            {
                "species": [
                    {
                        "element": "O",
                        "occu": 1
                    }
                ],
                "abc": [
                    0.97062411,
                    0.26750715,
                    0.11815997
                ],
                "xyz": [
                    10.151875506338474,
                    -2.356218078217349,
                    1.0818133586685716
                ],
                "label": "O",
                "properties": {}
            }
        ]
    },
    "spacegroup": {
        "source": "spglib",
        "symbol": "C2",
        "number": 5,
        "point_group": "2",
        "crystal_system": "monoclinic",
        "hall": "C 2y"
    },
    "dielectric": {
        "epsilon_ionic": [
            [
                4.37634976,
                6.495e-05,
                -0.04836824
            ],
            [
                6.495e-05,
                5.6022002,
                -6.144e-05
            ],
            [
                -0.04836824,
                -6.144e-05,
                4.21139731
            ]
        ],
        "epsilon_ionic_avg": 4.7299824233333325,
        "epsilon_ionic_eig": [
            4.389486365479199,
            4.198260698130152,
            5.602200206390647
        ],
        "epsilon_electronic": [
            [
                2.85647781,
                0.0,
                0.0017406
            ],
            [
                0.0,
                2.99059326,
                0.0
            ],
            [
                0.00174106,
                0.0,
                2.8468277
            ]
        ],
        "epsilon_electronic_avg": 2.897966256666667,
        "epsilon_electronic_eig": [
            2.856782242770628,
            2.846523267229372,
            2.99059326
        ]
    },
    "phonon": {
        "lowest_freq": -0.03711041698051192,
        "frequency": [
            -0.03711041698051192,
            -0.025778633295487328,
            -0.02292210385954477,
            1.66636037021027,
            1.6768384010048019,
            1.6928180548302711,
            1.797260036981442,
            1.828237316171733,
            1.8434828430402976,
            2.0552092258217574,
            2.07103207168097,
            2.17259888466847,
            2.2173844986529283,
            2.231879280782366,
            2.2571123537688025,
            2.3382897767075486,
            2.6702349485905037,
            2.7526957060342125,
            2.7944810996931024,
            2.9086941789146827,
            3.0263181059377526,
            3.1389079525263277,
            3.1513648948493493,
            3.339157738796326,
            3.39367700371594,
            3.7860031222699115,
            4.019480931311272,
            4.039651973513337,
            4.299362517358266,
            4.422943186609721,
            4.596957029775673,
            4.6178225158482755,
            4.758133901291365,
            4.75924699828816,
            5.188929618195535,
            5.5468600537361485,
            5.630861691592247,
            5.714752337945635,
            5.8110427609207385,
            5.8189225346732725,
            6.013457042758079,
            6.058427844831126,
            6.332481278382105,
            6.514868251459995,
            6.585366667795117,
            6.604710352748857,
            6.766378855231743,
            6.816235647883336,
            7.298615566255187,
            7.534683359621684,
            7.7692993036012625,
            7.952652460522816,
            7.978706268679142,
            8.017487482537563,
            8.494150235291523,
            8.530051290910349,
            8.674133071362869,
            8.83000010779335,
            8.952379589106734,
            9.003754343023454,
            9.619958946679711,
            9.962312935279371,
            14.0424761279035,
            14.133394271068136,
            14.298656242603716,
            14.444779228824872,
            14.62383678630174,
            14.643196115898638,
            14.667426010986619,
            14.930804996333261,
            14.954192214237779,
            15.22885438749391,
            15.257156483416642,
            15.500392538476722,
            15.69653775660582,
            15.697154095661954,
            15.975793775981096,
            16.12879971126645,
            16.227850323982207,
            16.59990723038502,
            16.99354906252138,
            17.062695589226944,
            21.74413697975825,
            21.92497264301531,
            22.115249063375114,
            22.17468280807214,
            22.26436533336879,
            22.518838885649732,
            22.797050144992916,
            22.870962754121756,
            22.972098627021012,
            23.0505396682778,
            23.115766161607542,
            24.03767700420048,
            24.625682858781456,
            24.636941980277122,
            24.733204999658874,
            24.85573016256791,
            24.926694847855487,
            25.021665739853137,
            25.138609537746408,
            25.327303655698298
        ]
    },
    "born_effective_charge": {
        "avg_abs_trace": 1.9970100000000002,
        "tensors": [
            [
                [
                    1.27472,
                    0.00917,
                    0.04367
                ],
                [
                    -0.01101,
                    1.21074,
                    -0.0532
                ],
                [
                    0.01743,
                    -0.05193,
                    1.30597
                ]
            ],
            [
                [
                    1.27467,
                    -0.00915,
                    0.04361
                ],
                [
                    0.01101,
                    1.21074,
                    0.0532
                ],
                [
                    0.01733,
                    0.05185,
                    1.30596
                ]
            ],
            [
                [
                    1.30029,
                    -0.04094,
                    -0.01653
                ],
                [
                    -0.04072,
                    1.21478,
                    0.0083
                ],
                [
                    -0.06008,
                    0.00302,
                    1.28387
                ]
            ],
            [
                [
                    1.30031,
                    0.04098,
                    -0.01655
                ],
                [
                    0.04072,
                    1.21478,
                    -0.0083
                ],
                [
                    -0.06017,
                    -0.00311,
                    1.28385
                ]
            ],
            [
                [
                    2.4364,
                    0.26443,
                    -0.64724
                ],
                [
                    -0.26532,
                    2.74883,
                    -0.14042
                ],
                [
                    -0.22769,
                    0.08566,
                    2.77092
                ]
            ],
            [
                [
                    2.436,
                    -0.26409,
                    -0.64669
                ],
                [
                    0.26532,
                    2.74883,
                    0.14042
                ],
                [
                    -0.22778,
                    -0.08569,
                    2.77153
                ]
            ],
            [
                [
                    2.38939,
                    -0.18822,
                    0.84277
                ],
                [
                    0.37342,
                    2.72363,
                    -0.00551
                ],
                [
                    0.14722,
                    0.10943,
                    2.79851
                ]
            ],
            [
                [
                    2.3892,
                    0.18798,
                    0.84256
                ],
                [
                    -0.37342,
                    2.72363,
                    0.00551
                ],
                [
                    0.14799,
                    -0.10868,
                    2.79842
                ]
            ],
            [
                [
                    3.21883,
                    0.10377,
                    -0.13994
                ],
                [
                    -0.042,
                    3.1185,
                    -0.36118
                ],
                [
                    -0.93185,
                    0.21252,
                    2.74747
                ]
            ],
            [
                [
                    3.21887,
                    -0.10372,
                    -0.13987
                ],
                [
                    0.042,
                    3.1185,
                    0.36118
                ],
                [
                    -0.93184,
                    -0.2126,
                    2.74744
                ]
            ],
            [
                [
                    2.59637,
                    0.00018,
                    -0.43979
                ],
                [
                    -0.0,
                    3.96048,
                    0.0
                ],
                [
                    0.54575,
                    -9e-05,
                    2.51521
                ]
            ],
            [
                [
                    2.76258,
                    -0.00012,
                    -0.29311
                ],
                [
                    -0.0,
                    4.03689,
                    0.0
                ],
                [
                    0.23067,
                    -6e-05,
                    2.64783
                ]
            ],
            [
                [
                    3.1929,
                    0.15295,
                    0.29107
                ],
                [
                    -0.10323,
                    3.15767,
                    0.2517
                ],
                [
                    0.67867,
                    -0.34235,
                    2.77076
                ]
            ],
            [
                [
                    3.19279,
                    -0.1529,
                    0.29121
                ],
                [
                    0.10323,
                    3.15767,
                    -0.2517
                ],
                [
                    0.67861,
                    0.34237,
                    2.77083
                ]
            ],
            [
                [
                    -1.92231,
                    -0.46673,
                    0.43066
                ],
                [
                    -0.44535,
                    -1.54608,
                    0.26288
                ],
                [
                    0.24257,
                    0.06966,
                    -1.49394
                ]
            ],
            [
                [
                    -1.92216,
                    0.4663,
                    0.4313
                ],
                [
                    0.44535,
                    -1.54608,
                    -0.26288
                ],
                [
                    0.24248,
                    -0.07005,
                    -1.49355
                ]
            ],
            [
                [
                    -1.43817,
                    0.08486,
                    -0.21046
                ],
                [
                    0.27464,
                    -1.6349,
                    0.51635
                ],
                [
                    -0.40902,
                    0.56386,
                    -1.89726
                ]
            ],
            [
                [
                    -1.43863,
                    -0.08438,
                    -0.2103
                ],
                [
                    -0.27464,
                    -1.6349,
                    -0.51635
                ],
                [
                    -0.40933,
                    -0.56376,
                    -1.89743
                ]
            ],
            [
                [
                    -1.63468,
                    -0.58918,
                    -0.04423
                ],
                [
                    -0.74125,
                    -2.39771,
                    -0.24771
                ],
                [
                    -0.27163,
                    -0.25742,
                    -1.13539
                ]
            ],
            [
                [
                    -1.63468,
                    0.58932,
                    -0.04443
                ],
                [
                    0.74125,
                    -2.39771,
                    0.24771
                ],
                [
                    -0.27133,
                    0.25738,
                    -1.13544
                ]
            ],
            [
                [
                    -1.15358,
                    0.17627,
                    0.21685
                ],
                [
                    0.17186,
                    -2.28269,
                    -0.62517
                ],
                [
                    -0.02041,
                    -0.44328,
                    -1.62039
                ]
            ],
            [
                [
                    -1.15323,
                    -0.17599,
                    0.21704
                ],
                [
                    -0.17186,
                    -2.28269,
                    0.62517
                ],
                [
                    -0.02021,
                    0.44322,
                    -1.62009
                ]
            ],
            [
                [
                    -2.19259,
                    -0.08072,
                    0.59101
                ],
                [
                    -0.0399,
                    -1.19742,
                    0.07689
                ],
                [
                    0.70042,
                    -0.00496,
                    -1.92418
                ]
            ],
            [
                [
                    -2.19314,
                    0.0808,
                    0.5905
                ],
                [
                    0.0399,
                    -1.19742,
                    -0.07689
                ],
                [
                    0.70005,
                    0.00509,
                    -1.9243
                ]
            ],
            [
                [
                    -2.03819,
                    -0.02633,
                    -0.67568
                ],
                [
                    -0.10136,
                    -1.19862,
                    -0.04171
                ],
                [
                    -0.63521,
                    -0.06862,
                    -2.05574
                ]
            ],
            [
                [
                    -2.03855,
                    0.02625,
                    -0.67512
                ],
                [
                    0.10136,
                    -1.19862,
                    0.04171
                ],
                [
                    -0.63531,
                    0.06863,
                    -2.05588
                ]
            ],
            [
                [
                    -1.98317,
                    -0.44308,
                    -0.30675
                ],
                [
                    -0.51517,
                    -1.67096,
                    -0.24202
                ],
                [
                    -0.01927,
                    -0.26686,
                    -1.28177
                ]
            ],
            [
                [
                    -1.98316,
                    0.44281,
                    -0.30685
                ],
                [
                    0.51517,
                    -1.67096,
                    0.24202
                ],
                [
                    -0.01935,
                    0.26693,
                    -1.28179
                ]
            ],
            [
                [
                    -1.27225,
                    0.20296,
                    0.06937
                ],
                [
                    0.18898,
                    -1.55622,
                    -0.47601
                ],
                [
                    0.3403,
                    -0.38201,
                    -2.06712
                ]
            ],
            [
                [
                    -1.27228,
                    -0.20314,
                    0.0696
                ],
                [
                    -0.18898,
                    -1.55622,
                    0.47601
                ],
                [
                    0.34007,
                    0.38194,
                    -2.06687
                ]
            ],
            [
                [
                    -1.60627,
                    0.60323,
                    0.25985
                ],
                [
                    0.73878,
                    -2.39901,
                    -0.17866
                ],
                [
                    0.33811,
                    -0.19751,
                    -1.21252
                ]
            ],
            [
                [
                    -1.60665,
                    -0.6034,
                    0.25992
                ],
                [
                    -0.73878,
                    -2.39901,
                    0.17866
                ],
                [
                    0.33815,
                    0.19747,
                    -1.21255
                ]
            ],
            [
                [
                    -1.24985,
                    0.20996,
                    -0.3387
                ],
                [
                    0.19636,
                    -2.28921,
                    0.61265
                ],
                [
                    -0.27789,
                    0.45246,
                    -1.5712
                ]
            ],
            [
                [
                    -1.24975,
                    -0.21013,
                    -0.33878
                ],
                [
                    -0.19636,
                    -2.28921,
                    -0.61265
                ],
                [
                    -0.27745,
                    -0.45252,
                    -1.57112
                ]
            ]
        ]
    },
    "band_gap": 3.2286,
    "is_direct": true,
    "formula": "Rb2Ga2Ge3O10"
}