{
    "mp_id": "mp-1103519",
    "nelements": 3,
    "nsites": 12,
    "elements": [
        "Cu",
        "K",
        "O"
    ],
    "structure": {
        "@module": "pymatgen.core.structure",
        "@class": "Structure",
        "charge": null,
        "lattice": {
            "matrix": [
                [
                    -4.62093168,
                    4.62093168,
                    2.75238976
                ],
                [
                    4.62093168,
                    -4.62093168,
                    2.75238976
                ],
                [
                    4.62093168,
                    4.62093168,
                    -2.75238976
                ]
            ],
            "a": 7.0909568164957895,
            "b": 7.0909568164957895,
            "c": 7.0909568164957895,
            "alpha": 98.66542220048802,
            "beta": 98.66542220048802,
            "gamma": 134.32051677080287,
            "volume": 235.08721977630677
        },
        "sites": [
            {
                "species": [
                    {
                        "element": "K",
                        "occu": 1
                    }
                ],
                "abc": [
                    0.19043984,
                    0.5,
                    0.69043984
                ],
                "xyz": [
                    4.62093168,
                    1.7600189795802625,
                    -2.220446049250313e-16
                ],
                "label": "K",
                "properties": {}
            },
            {
                "species": [
                    {
                        "element": "K",
                        "occu": 1
                    }
                ],
                "abc": [
                    0.80956016,
                    0.5,
                    0.30956016
                ],
                "xyz": [
                    0.0,
                    2.860912700419737,
                    2.75238976
                ],
                "label": "K",
                "properties": {}
            },
            {
                "species": [
                    {
                        "element": "K",
                        "occu": 1
                    }
                ],
                "abc": [
                    0.5,
                    0.80956016,
                    0.30956016
                ],
                "xyz": [
                    2.860912700419737,
                    0.0,
                    2.75238976
                ],
                "label": "K",
                "properties": {}
            },
            {
                "species": [
                    {
                        "element": "K",
                        "occu": 1
                    }
                ],
                "abc": [
                    0.5,
                    0.19043984,
                    0.69043984
                ],
                "xyz": [
                    1.7600189795802625,
                    4.62093168,
                    -2.220446049250313e-16
                ],
                "label": "K",
                "properties": {}
            },
            {
                "species": [
                    {
                        "element": "Cu",
                        "occu": 1
                    }
                ],
                "abc": [
                    0.8626884,
                    0.1373116,
                    0.0
                ],
                "xyz": [
                    -3.351916635057024,
                    3.351916635057024,
                    2.75238976
                ],
                "label": "Cu",
                "properties": {}
            },
            {
                "species": [
                    {
                        "element": "Cu",
                        "occu": 1
                    }
                ],
                "abc": [
                    0.1373116,
                    0.8626884,
                    0.0
                ],
                "xyz": [
                    3.351916635057024,
                    -3.351916635057024,
                    2.75238976
                ],
                "label": "Cu",
                "properties": {}
            },
            {
                "species": [
                    {
                        "element": "Cu",
                        "occu": 1
                    }
                ],
                "abc": [
                    0.1373116,
                    0.1373116,
                    0.27462219
                ],
                "xyz": [
                    1.2690103778019792,
                    1.2690103778019792,
                    2.779913657713351e-06
                ],
                "label": "Cu",
                "properties": {}
            },
            {
                "species": [
                    {
                        "element": "Cu",
                        "occu": 1
                    }
                ],
                "abc": [
                    0.8626884,
                    0.8626884,
                    0.72537781
                ],
                "xyz": [
                    3.3519213021980208,
                    3.3519213021980208,
                    2.7523869800863423
                ],
                "label": "Cu",
                "properties": {}
            },
            {
                "species": [
                    {
                        "element": "O",
                        "occu": 1
                    }
                ],
                "abc": [
                    0.27676472,
                    0.0,
                    0.27676472
                ],
                "xyz": [
                    0.0,
                    2.5578217251086595,
                    0.0
                ],
                "label": "O",
                "properties": {}
            },
            {
                "species": [
                    {
                        "element": "O",
                        "occu": 1
                    }
                ],
                "abc": [
                    0.72323528,
                    0.0,
                    0.72323528
                ],
                "xyz": [
                    0.0,
                    6.684041634891341,
                    0.0
                ],
                "label": "O",
                "properties": {}
            },
            {
                "species": [
                    {
                        "element": "O",
                        "occu": 1
                    }
                ],
                "abc": [
                    0.0,
                    0.72323528,
                    0.72323528
                ],
                "xyz": [
                    6.684041634891341,
                    0.0,
                    0.0
                ],
                "label": "O",
                "properties": {}
            },
            {
                "species": [
                    {
                        "element": "O",
                        "occu": 1
                    }
                ],
                "abc": [
                    0.0,
                    0.27676472,
                    0.27676472
                ],
                "xyz": [
                    2.5578217251086595,
                    0.0,
                    0.0
                ],
                "label": "O",
                "properties": {}
            }
        ]
    },
    "spacegroup": {
        "source": "spglib",
        "symbol": "I4/mmm",
        "number": 139,
        "point_group": "4/mmm",
        "crystal_system": "tetragonal",
        "hall": "-I 4 2"
    },
    "dielectric": {
        "epsilon_ionic": [
            [
                2.82455384,
                -0.0,
                -0.0
            ],
            [
                -0.0,
                2.82453253,
                -0.0
            ],
            [
                -0.0,
                -0.0,
                2.2753648
            ]
        ],
        "epsilon_ionic_avg": 2.6414837233333333,
        "epsilon_ionic_eig": [
            2.82455384,
            2.82453253,
            2.2753648
        ],
        "epsilon_electronic": [
            [
                3.71919109,
                0.0,
                0.0
            ],
            [
                0.0,
                3.71919109,
                -0.0
            ],
            [
                0.0,
                0.0,
                3.07121353
            ]
        ],
        "epsilon_electronic_avg": 3.50319857,
        "epsilon_electronic_eig": [
            3.71919109,
            3.71919109,
            3.07121353
        ]
    },
    "phonon": {
        "lowest_freq": -0.06770967419381804,
        "frequency": [
            -0.06770967419381804,
            -0.04444741039858249,
            -0.04444741039858249,
            1.8546573609391899,
            1.8546573609391899,
            2.2236113476452184,
            2.7711517879828964,
            2.884174005872518,
            3.361341758562331,
            3.361341758562331,
            3.521421531065223,
            3.985071219968781,
            4.190892852126323,
            4.190892852126323,
            4.214556008430694,
            4.282391009549014,
            4.431899069493973,
            4.431899069493973,
            4.500491636727166,
            4.621194268643847,
            4.900892785408727,
            5.036827117641541,
            5.787344029642863,
            5.787344029642863,
            5.977196092457763,
            7.214095678044921,
            7.214095678044921,
            8.301723025935242,
            15.355278707398902,
            15.355278707398902,
            15.871210070868726,
            16.623301538001922,
            16.828695130818677,
            17.977324882317333,
            17.977324882317333,
            18.089098309980827
        ]
    },
    "born_effective_charge": {
        "avg_abs_trace": 0.9593822222222221,
        "tensors": [
            [
                [
                    1.3245,
                    4e-05,
                    -0.0
                ],
                [
                    0.0,
                    0.99923,
                    0.0
                ],
                [
                    -0.0,
                    1e-05,
                    1.29054
                ]
            ],
            [
                [
                    1.3245,
                    -4e-05,
                    0.0
                ],
                [
                    0.0,
                    0.9992,
                    0.0
                ],
                [
                    -0.0,
                    -1e-05,
                    1.29054
                ]
            ],
            [
                [
                    0.99916,
                    0.0,
                    -0.0
                ],
                [
                    -0.0,
                    1.32449,
                    0.0
                ],
                [
                    -1e-05,
                    0.0,
                    1.29054
                ]
            ],
            [
                [
                    0.99926,
                    0.0,
                    -0.0
                ],
                [
                    0.0,
                    1.32449,
                    -0.0
                ],
                [
                    1e-05,
                    0.0,
                    1.29054
                ]
            ],
            [
                [
                    0.55228,
                    0.80524,
                    -0.0
                ],
                [
                    0.80522,
                    0.5524,
                    -0.0
                ],
                [
                    3e-05,
                    -3e-05,
                    -0.40179
                ]
            ],
            [
                [
                    0.55248,
                    0.80521,
                    -0.0
                ],
                [
                    0.80521,
                    0.55236,
                    0.0
                ],
                [
                    -3e-05,
                    3e-05,
                    -0.40179
                ]
            ],
            [
                [
                    0.55228,
                    -0.80524,
                    -0.0
                ],
                [
                    -0.80521,
                    0.55236,
                    -0.0
                ],
                [
                    3e-05,
                    3e-05,
                    -0.40179
                ]
            ],
            [
                [
                    0.55248,
                    -0.80521,
                    0.0
                ],
                [
                    -0.80522,
                    0.5524,
                    0.0
                ],
                [
                    -3e-05,
                    -3e-05,
                    -0.40179
                ]
            ],
            [
                [
                    -1.63791,
                    -4e-05,
                    0.0
                ],
                [
                    0.0,
                    -1.79058,
                    0.0
                ],
                [
                    0.0,
                    -3e-05,
                    -0.88876
                ]
            ],
            [
                [
                    -1.63791,
                    4e-05,
                    0.0
                ],
                [
                    -0.0,
                    -1.79053,
                    0.0
                ],
                [
                    0.0,
                    3e-05,
                    -0.88876
                ]
            ],
            [
                [
                    -1.79054,
                    0.0,
                    0.0
                ],
                [
                    -0.00012,
                    -1.63791,
                    -0.0
                ],
                [
                    3e-05,
                    0.0,
                    -0.88876
                ]
            ],
            [
                [
                    -1.79056,
                    -0.0,
                    -0.0
                ],
                [
                    0.00012,
                    -1.63791,
                    -0.0
                ],
                [
                    -3e-05,
                    0.0,
                    -0.88876
                ]
            ]
        ]
    },
    "band_gap": 1.6301,
    "is_direct": false,
    "formula": "KCuO"
}