{
    "mp_id": "mp-18964",
    "nelements": 4,
    "nsites": 28,
    "elements": [
        "Cr",
        "K",
        "Na",
        "O"
    ],
    "structure": {
        "@module": "pymatgen.core.structure",
        "@class": "Structure",
        "charge": null,
        "lattice": {
            "matrix": [
                [
                    5.0474307,
                    -2.91917749,
                    0.00137912
                ],
                [
                    5.0474307,
                    2.91917749,
                    0.00137912
                ],
                [
                    -0.04313609,
                    0.0,
                    15.06933492
                ]
            ],
            "a": 5.830793753117765,
            "b": 5.830793753117765,
            "c": 15.069396658572362,
            "alpha": 90.1284228235665,
            "beta": 90.1284228235665,
            "gamma": 60.0858124942212,
            "volume": 444.0739391897422
        },
        "sites": [
            {
                "species": [
                    {
                        "element": "K",
                        "occu": 1
                    }
                ],
                "abc": [
                    0.0562423,
                    0.9437577,
                    0.25
                ],
                "xyz": [
                    5.036646677499999,
                    2.5908149777083462,
                    3.76871285
                ],
                "label": "K",
                "properties": {}
            },
            {
                "species": [
                    {
                        "element": "K",
                        "occu": 1
                    }
                ],
                "abc": [
                    0.9437577,
                    0.0562423,
                    0.75
                ],
                "xyz": [
                    5.0150786325,
                    -2.5908149777083462,
                    11.303380309999998
                ],
                "label": "K",
                "properties": {}
            },
            {
                "species": [
                    {
                        "element": "K",
                        "occu": 1
                    }
                ],
                "abc": [
                    0.65142323,
                    0.69240888,
                    0.91287628
                ],
                "xyz": [
                    6.743521534286831,
                    0.1196443868930186,
                    13.75829170958324
                ],
                "label": "K",
                "properties": {}
            },
            {
                "species": [
                    {
                        "element": "K",
                        "occu": 1
                    }
                ],
                "abc": [
                    0.30759112,
                    0.34857677,
                    0.58712372
                ],
                "xyz": [
                    3.286635730713168,
                    0.11964438689301848,
                    8.84846891041676
                ],
                "label": "K",
                "properties": {}
            },
            {
                "species": [
                    {
                        "element": "K",
                        "occu": 1
                    }
                ],
                "abc": [
                    0.69240888,
                    0.65142323,
                    0.41287628
                ],
                "xyz": [
                    6.7650895792868315,
                    -0.1196443868930186,
                    6.22362424958324
                ],
                "label": "K",
                "properties": {}
            },
            {
                "species": [
                    {
                        "element": "K",
                        "occu": 1
                    }
                ],
                "abc": [
                    0.34857677,
                    0.30759112,
                    0.08712372
                ],
                "xyz": [
                    3.308203775713168,
                    -0.11964438689301848,
                    1.3138014504167592
                ],
                "label": "K",
                "properties": {}
            },
            {
                "species": [
                    {
                        "element": "Na",
                        "occu": 1
                    }
                ],
                "abc": [
                    0.0,
                    0.0,
                    0.5
                ],
                "xyz": [
                    -0.021568045,
                    0.0,
                    7.53466746
                ],
                "label": "Na",
                "properties": {}
            },
            {
                "species": [
                    {
                        "element": "Na",
                        "occu": 1
                    }
                ],
                "abc": [
                    0.0,
                    0.0,
                    0.0
                ],
                "xyz": [
                    0.0,
                    0.0,
                    0.0
                ],
                "label": "Na",
                "properties": {}
            },
            {
                "species": [
                    {
                        "element": "Cr",
                        "occu": 1
                    }
                ],
                "abc": [
                    0.6464026,
                    0.67859864,
                    0.63371483
                ],
                "xyz": [
                    6.660515956372854,
                    0.09398595523513964,
                    9.55148835275097
                ],
                "label": "Cr",
                "properties": {}
            },
            {
                "species": [
                    {
                        "element": "Cr",
                        "occu": 1
                    }
                ],
                "abc": [
                    0.32140136,
                    0.3535974,
                    0.86628517
                ],
                "xyz": [
                    3.3696413086271466,
                    0.09398595523513942,
                    13.055272267249029
                ],
                "label": "Cr",
                "properties": {}
            },
            {
                "species": [
                    {
                        "element": "Cr",
                        "occu": 1
                    }
                ],
                "abc": [
                    0.3535974,
                    0.32140136,
                    0.36628517
                ],
                "xyz": [
                    3.3912093536271466,
                    -0.09398595523513942,
                    5.520604807249027
                ],
                "label": "Cr",
                "properties": {}
            },
            {
                "species": [
                    {
                        "element": "Cr",
                        "occu": 1
                    }
                ],
                "abc": [
                    0.67859864,
                    0.6464026,
                    0.13371483
                ],
                "xyz": [
                    6.6820840013728535,
                    -0.09398595523513964,
                    2.0168208927509723
                ],
                "label": "Cr",
                "properties": {}
            },
            {
                "species": [
                    {
                        "element": "O",
                        "occu": 1
                    }
                ],
                "abc": [
                    0.78028363,
                    0.84632043,
                    0.59036462
                ],
                "xyz": [
                    8.184705247807505,
                    0.19277314007163193,
                    8.898645465889757
                ],
                "label": "O",
                "properties": {}
            },
            {
                "species": [
                    {
                        "element": "O",
                        "occu": 1
                    }
                ],
                "abc": [
                    0.15367957,
                    0.21971637,
                    0.90963538
                ],
                "xyz": [
                    1.8454520171924935,
                    0.19277314007163204,
                    13.708115154110242
                ],
                "label": "O",
                "properties": {}
            },
            {
                "species": [
                    {
                        "element": "O",
                        "occu": 1
                    }
                ],
                "abc": [
                    0.21971637,
                    0.15367957,
                    0.40963538
                ],
                "xyz": [
                    1.8670200621924935,
                    -0.19277314007163204,
                    6.173447694110242
                ],
                "label": "O",
                "properties": {}
            },
            {
                "species": [
                    {
                        "element": "O",
                        "occu": 1
                    }
                ],
                "abc": [
                    0.84632043,
                    0.78028363,
                    0.09036462
                ],
                "xyz": [
                    8.206273292807506,
                    -0.19277314007163193,
                    1.3639780058897577
                ],
                "label": "O",
                "properties": {}
            },
            {
                "species": [
                    {
                        "element": "O",
                        "occu": 1
                    }
                ],
                "abc": [
                    0.32287627,
                    0.84287391,
                    0.61529936
                ],
                "xyz": [
                    5.857501638492622,
                    1.5179654055411236,
                    9.273759841289893
                ],
                "label": "O",
                "properties": {}
            },
            {
                "species": [
                    {
                        "element": "O",
                        "occu": 1
                    }
                ],
                "abc": [
                    0.15712609,
                    0.67712373,
                    0.88470064
                ],
                "xyz": [
                    4.172655626507376,
                    1.5179654055411236,
                    13.333000778710106
                ],
                "label": "O",
                "properties": {}
            },
            {
                "species": [
                    {
                        "element": "O",
                        "occu": 1
                    }
                ],
                "abc": [
                    0.67712373,
                    0.15712609,
                    0.38470064
                ],
                "xyz": [
                    4.194223671507376,
                    -1.5179654055411236,
                    5.798333318710107
                ],
                "label": "O",
                "properties": {}
            },
            {
                "species": [
                    {
                        "element": "O",
                        "occu": 1
                    }
                ],
                "abc": [
                    0.84287391,
                    0.32287627,
                    0.11529936
                ],
                "xyz": [
                    5.879069683492623,
                    -1.5179654055411236,
                    1.7390923812898929
                ],
                "label": "O",
                "properties": {}
            },
            {
                "species": [
                    {
                        "element": "O",
                        "occu": 1
                    }
                ],
                "abc": [
                    0.77731162,
                    0.38694646,
                    0.58275937
                ],
                "xyz": [
                    5.851374015082392,
                    -1.1395451879522482,
                    8.78340177590149
                ],
                "label": "O",
                "properties": {}
            },
            {
                "species": [
                    {
                        "element": "O",
                        "occu": 1
                    }
                ],
                "abc": [
                    0.61305354,
                    0.22268838,
                    0.91724063
                ],
                "xyz": [
                    4.178783249917608,
                    -1.1395451879522485,
                    13.82335884409851
                ],
                "label": "O",
                "properties": {}
            },
            {
                "species": [
                    {
                        "element": "O",
                        "occu": 1
                    }
                ],
                "abc": [
                    0.22268838,
                    0.61305354,
                    0.41724063
                ],
                "xyz": [
                    4.200351294917607,
                    1.1395451879522485,
                    6.2886913840985095
                ],
                "label": "O",
                "properties": {}
            },
            {
                "species": [
                    {
                        "element": "O",
                        "occu": 1
                    }
                ],
                "abc": [
                    0.38694646,
                    0.77731162,
                    0.08275937
                ],
                "xyz": [
                    5.872942060082392,
                    1.1395451879522482,
                    1.2487343159014899
                ],
                "label": "O",
                "properties": {}
            },
            {
                "species": [
                    {
                        "element": "O",
                        "occu": 1
                    }
                ],
                "abc": [
                    0.62958119,
                    0.71332585,
                    0.23976116
                ],
                "xyz": [
                    6.767887861965863,
                    0.24446552637970376,
                    3.614893250804712
                ],
                "label": "O",
                "properties": {}
            },
            {
                "species": [
                    {
                        "element": "O",
                        "occu": 1
                    }
                ],
                "abc": [
                    0.28667415,
                    0.37041881,
                    0.26023884
                ],
                "xyz": [
                    3.305405493034136,
                    0.24446552637970342,
                    3.922532449195288
                ],
                "label": "O",
                "properties": {}
            },
            {
                "species": [
                    {
                        "element": "O",
                        "occu": 1
                    }
                ],
                "abc": [
                    0.71332585,
                    0.62958119,
                    0.73976116
                ],
                "xyz": [
                    6.746319816965863,
                    -0.24446552637970376,
                    11.149560710804712
                ],
                "label": "O",
                "properties": {}
            },
            {
                "species": [
                    {
                        "element": "O",
                        "occu": 1
                    }
                ],
                "abc": [
                    0.37041881,
                    0.28667415,
                    0.76023884
                ],
                "xyz": [
                    3.283837448034136,
                    -0.24446552637970342,
                    11.457199909195287
                ],
                "label": "O",
                "properties": {}
            }
        ]
    },
    "spacegroup": {
        "source": "spglib",
        "symbol": "C2/c",
        "number": 15,
        "point_group": "2/m",
        "crystal_system": "monoclinic",
        "hall": "-C 2yc"
    },
    "dielectric": {
        "epsilon_ionic": [
            [
                5.96187748,
                5e-08,
                0.51788366
            ],
            [
                5e-08,
                4.15894992,
                2.7e-07
            ],
            [
                0.51788366,
                2.7e-07,
                3.21158959
            ]
        ],
        "epsilon_ionic_avg": 4.444138996666665,
        "epsilon_ionic_eig": [
            6.05616347710856,
            3.1173035928913784,
            4.158949920000058
        ],
        "epsilon_electronic": [
            [
                2.79584106,
                0.0,
                -0.00399697
            ],
            [
                0.0,
                2.81374115,
                0.0
            ],
            [
                -0.00399661,
                0.0,
                2.83365374
            ]
        ],
        "epsilon_electronic_avg": 2.814411983333333,
        "epsilon_electronic_eig": [
            2.795423217676618,
            2.8340715823233817,
            2.81374115
        ]
    },
    "phonon": {
        "lowest_freq": -0.07284242308577533,
        "frequency": [
            -0.07284242308577533,
            -0.06588430120613605,
            -0.029914780730308604,
            1.2332809443956991,
            1.2828584735523658,
            1.285401750243674,
            1.4252336555168992,
            1.8656284545734223,
            1.9316278119037276,
            1.973392454546385,
            2.0228363087288272,
            2.1778730684503116,
            2.260560246680409,
            2.3305608686688926,
            2.6278390048876945,
            2.7168223760985444,
            2.7891695726495183,
            2.94312646422844,
            3.0108216178211036,
            3.027946912663665,
            3.0740328357988584,
            3.1321656786282506,
            3.1987778318461544,
            3.2003684549663682,
            3.3126015425062003,
            3.4314293139427825,
            3.5096321424781354,
            3.7284085894749346,
            3.7462741048619868,
            3.7747001504070883,
            3.824945621722916,
            3.858481011664363,
            3.8598132202560884,
            3.861742361074053,
            3.9388936243138124,
            4.07709946283834,
            4.185606663564149,
            4.435615149963001,
            4.691639235368113,
            4.89903147448785,
            5.052174034281665,
            5.149608183811886,
            5.564932518343861,
            5.632123946211233,
            6.251188444877852,
            6.293365264585058,
            6.546319724882117,
            7.076789223908018,
            10.166341555388946,
            10.193589681223633,
            10.265571683675045,
            10.27373247339081,
            10.333931657055961,
            10.36519859552756,
            10.40345813915799,
            10.476294011901427,
            11.186333460760045,
            11.190714064689152,
            11.311833906544015,
            11.315158881363315,
            11.455790993454247,
            11.482405820070738,
            11.51756861989918,
            11.524079550695541,
            11.742120441755576,
            11.791133588953265,
            11.80671526906044,
            11.852667731008799,
            26.155364579147736,
            26.21320680590236,
            26.232696035265683,
            26.24497018990517,
            26.86724163239244,
            26.873986312496964,
            27.062038975628738,
            27.073454730099915,
            27.191962908052545,
            27.22399010516405,
            27.35700225678998,
            27.446981658421404,
            28.766977238129158,
            29.241299267896512,
            29.33526419800018,
            30.224516367595335
        ]
    },
    "born_effective_charge": {
        "avg_abs_trace": 1.4532986904761906,
        "tensors": [
            [
                [
                    1.33293,
                    -0.0,
                    -0.04929
                ],
                [
                    0.0,
                    1.41052,
                    0.0
                ],
                [
                    -0.04419,
                    -2e-05,
                    0.96454
                ]
            ],
            [
                [
                    1.33293,
                    0.0,
                    -0.04929
                ],
                [
                    0.0,
                    1.41051,
                    0.0
                ],
                [
                    -0.04419,
                    2e-05,
                    0.96454
                ]
            ],
            [
                [
                    1.1181,
                    -0.00303,
                    0.00079
                ],
                [
                    -0.00243,
                    1.11523,
                    0.01224
                ],
                [
                    0.00409,
                    0.08669,
                    1.39497
                ]
            ],
            [
                [
                    1.11807,
                    0.00302,
                    0.00078
                ],
                [
                    0.00243,
                    1.11523,
                    -0.01224
                ],
                [
                    0.0041,
                    -0.08669,
                    1.39498
                ]
            ],
            [
                [
                    1.1181,
                    0.00303,
                    0.00079
                ],
                [
                    0.00249,
                    1.11521,
                    -0.01228
                ],
                [
                    0.00409,
                    -0.08669,
                    1.39497
                ]
            ],
            [
                [
                    1.11807,
                    -0.00302,
                    0.00078
                ],
                [
                    -0.00249,
                    1.11521,
                    0.01228
                ],
                [
                    0.0041,
                    0.08669,
                    1.39498
                ]
            ],
            [
                [
                    1.46239,
                    0.01099,
                    0.02832
                ],
                [
                    0.01185,
                    1.45181,
                    -0.12036
                ],
                [
                    -0.03825,
                    0.1158,
                    1.3479
                ]
            ],
            [
                [
                    1.46239,
                    -0.01099,
                    0.02832
                ],
                [
                    -0.01185,
                    1.45181,
                    0.12036
                ],
                [
                    -0.03825,
                    -0.1158,
                    1.3479
                ]
            ],
            [
                [
                    2.48893,
                    0.03094,
                    -0.03302
                ],
                [
                    0.0279,
                    2.52723,
                    -0.00784
                ],
                [
                    -0.00416,
                    0.02204,
                    2.63028
                ]
            ],
            [
                [
                    2.48882,
                    -0.03089,
                    -0.03307
                ],
                [
                    -0.0279,
                    2.52723,
                    0.00784
                ],
                [
                    -0.00428,
                    -0.02208,
                    2.63026
                ]
            ],
            [
                [
                    2.48882,
                    0.03089,
                    -0.03307
                ],
                [
                    0.02772,
                    2.52712,
                    -0.00745
                ],
                [
                    -0.00428,
                    0.02208,
                    2.63026
                ]
            ],
            [
                [
                    2.48893,
                    -0.03094,
                    -0.03302
                ],
                [
                    -0.02772,
                    2.52712,
                    0.00745
                ],
                [
                    -0.00416,
                    -0.02204,
                    2.63028
                ]
            ],
            [
                [
                    -2.17959,
                    -0.12209,
                    0.65048
                ],
                [
                    -0.1267,
                    -0.77738,
                    0.03873
                ],
                [
                    0.63807,
                    -0.00907,
                    -1.00129
                ]
            ],
            [
                [
                    -2.17961,
                    0.12207,
                    0.65049
                ],
                [
                    0.1267,
                    -0.77738,
                    -0.03873
                ],
                [
                    0.6383,
                    0.00892,
                    -1.00147
                ]
            ],
            [
                [
                    -2.17961,
                    -0.12207,
                    0.65049
                ],
                [
                    -0.12183,
                    -0.77703,
                    0.03663
                ],
                [
                    0.6383,
                    -0.00892,
                    -1.00147
                ]
            ],
            [
                [
                    -2.17959,
                    0.12209,
                    0.65048
                ],
                [
                    0.12183,
                    -0.77703,
                    -0.03663
                ],
                [
                    0.63807,
                    0.00907,
                    -1.00129
                ]
            ],
            [
                [
                    -1.14563,
                    0.7077,
                    -0.1401
                ],
                [
                    0.70525,
                    -2.03469,
                    0.23445
                ],
                [
                    -0.14658,
                    0.20857,
                    -0.69146
                ]
            ],
            [
                [
                    -1.14543,
                    -0.7072,
                    -0.14001
                ],
                [
                    -0.70525,
                    -2.03469,
                    -0.23445
                ],
                [
                    -0.14629,
                    -0.2079,
                    -0.69147
                ]
            ],
            [
                [
                    -1.14543,
                    0.7072,
                    -0.14001
                ],
                [
                    0.70559,
                    -2.03629,
                    0.23472
                ],
                [
                    -0.14629,
                    0.2079,
                    -0.69147
                ]
            ],
            [
                [
                    -1.14563,
                    -0.7077,
                    -0.1401
                ],
                [
                    -0.70559,
                    -2.03629,
                    -0.23472
                ],
                [
                    -0.14658,
                    -0.20857,
                    -0.69146
                ]
            ],
            [
                [
                    -1.1751,
                    -0.60705,
                    -0.39026
                ],
                [
                    -0.60575,
                    -1.66238,
                    -0.59604
                ],
                [
                    -0.36828,
                    -0.62339,
                    -1.13904
                ]
            ],
            [
                [
                    -1.17509,
                    0.60693,
                    -0.39024
                ],
                [
                    0.60575,
                    -1.66238,
                    0.59604
                ],
                [
                    -0.3684,
                    0.62322,
                    -1.1392
                ]
            ],
            [
                [
                    -1.17509,
                    -0.60693,
                    -0.39024
                ],
                [
                    -0.60483,
                    -1.66099,
                    -0.59508
                ],
                [
                    -0.3684,
                    -0.62322,
                    -1.1392
                ]
            ],
            [
                [
                    -1.1751,
                    0.60705,
                    -0.39026
                ],
                [
                    0.60483,
                    -1.66099,
                    0.59508
                ],
                [
                    -0.36828,
                    0.62339,
                    -1.13904
                ]
            ],
            [
                [
                    -0.5044,
                    0.01457,
                    -0.07774
                ],
                [
                    0.01877,
                    -0.59899,
                    -0.41558
                ],
                [
                    -0.08205,
                    -0.36569,
                    -2.34978
                ]
            ],
            [
                [
                    -0.50438,
                    -0.01467,
                    -0.0771
                ],
                [
                    -0.01877,
                    -0.59899,
                    0.41558
                ],
                [
                    -0.08209,
                    0.36571,
                    -2.34922
                ]
            ],
            [
                [
                    -0.5044,
                    -0.01457,
                    -0.07774
                ],
                [
                    -0.01824,
                    -0.59935,
                    0.41749
                ],
                [
                    -0.08205,
                    0.36569,
                    -2.34978
                ]
            ],
            [
                [
                    -0.50438,
                    0.01467,
                    -0.0771
                ],
                [
                    0.01824,
                    -0.59935,
                    -0.41749
                ],
                [
                    -0.08209,
                    -0.36571,
                    -2.34922
                ]
            ]
        ]
    },
    "band_gap": 3.0124999999999997,
    "is_direct": false,
    "formula": "K3NaCr2O8"
}