{
    "mp_id": "mp-18449",
    "nelements": 3,
    "nsites": 24,
    "elements": [
        "K",
        "O",
        "Zr"
    ],
    "structure": {
        "@module": "pymatgen.core.structure",
        "@class": "Structure",
        "charge": null,
        "lattice": {
            "matrix": [
                [
                    5.92580134,
                    0.0,
                    0.0
                ],
                [
                    0.0,
                    10.53662489,
                    0.0
                ],
                [
                    0.0,
                    0.0,
                    6.99757002
                ]
            ],
            "a": 5.92580134,
            "b": 10.53662489,
            "c": 6.99757002,
            "alpha": 90.0,
            "beta": 90.0,
            "gamma": 90.0,
            "volume": 436.9138982859162
        },
        "sites": [
            {
                "species": [
                    {
                        "element": "K",
                        "occu": 1
                    }
                ],
                "abc": [
                    0.23311324,
                    0.91406442,
                    0.6153941
                ],
                "xyz": [
                    1.3813827499637414,
                    9.631153918835414,
                    4.306263304644883
                ],
                "label": "K",
                "properties": {}
            },
            {
                "species": [
                    {
                        "element": "K",
                        "occu": 1
                    }
                ],
                "abc": [
                    0.23311324,
                    0.58593558,
                    0.6153941
                ],
                "xyz": [
                    1.3813827499637414,
                    6.173783416164587,
                    4.306263304644883
                ],
                "label": "K",
                "properties": {}
            },
            {
                "species": [
                    {
                        "element": "K",
                        "occu": 1
                    }
                ],
                "abc": [
                    0.76688676,
                    0.08593558,
                    0.3846059
                ],
                "xyz": [
                    4.544418590036258,
                    0.9054709711645862,
                    2.6913067153551182
                ],
                "label": "K",
                "properties": {}
            },
            {
                "species": [
                    {
                        "element": "K",
                        "occu": 1
                    }
                ],
                "abc": [
                    0.26688676,
                    0.41406442,
                    0.1153941
                ],
                "xyz": [
                    1.5815179200362584,
                    4.362841473835414,
                    0.8074782946448821
                ],
                "label": "K",
                "properties": {}
            },
            {
                "species": [
                    {
                        "element": "K",
                        "occu": 1
                    }
                ],
                "abc": [
                    0.26688676,
                    0.08593558,
                    0.1153941
                ],
                "xyz": [
                    1.5815179200362584,
                    0.9054709711645862,
                    0.8074782946448821
                ],
                "label": "K",
                "properties": {}
            },
            {
                "species": [
                    {
                        "element": "K",
                        "occu": 1
                    }
                ],
                "abc": [
                    0.76688676,
                    0.41406442,
                    0.3846059
                ],
                "xyz": [
                    4.544418590036258,
                    4.362841473835414,
                    2.6913067153551182
                ],
                "label": "K",
                "properties": {}
            },
            {
                "species": [
                    {
                        "element": "K",
                        "occu": 1
                    }
                ],
                "abc": [
                    0.73311324,
                    0.58593558,
                    0.8846059
                ],
                "xyz": [
                    4.344283419963741,
                    6.173783416164587,
                    6.190091725355118
                ],
                "label": "K",
                "properties": {}
            },
            {
                "species": [
                    {
                        "element": "K",
                        "occu": 1
                    }
                ],
                "abc": [
                    0.73311324,
                    0.91406442,
                    0.8846059
                ],
                "xyz": [
                    4.344283419963741,
                    9.631153918835414,
                    6.190091725355118
                ],
                "label": "K",
                "properties": {}
            },
            {
                "species": [
                    {
                        "element": "Zr",
                        "occu": 1
                    }
                ],
                "abc": [
                    0.27877075,
                    0.75,
                    0.15923505
                ],
                "xyz": [
                    1.651940083902805,
                    7.902468667500001,
                    1.114258412013201
                ],
                "label": "Zr",
                "properties": {}
            },
            {
                "species": [
                    {
                        "element": "Zr",
                        "occu": 1
                    }
                ],
                "abc": [
                    0.77877075,
                    0.75,
                    0.34076495
                ],
                "xyz": [
                    4.614840753902804,
                    7.902468667500001,
                    2.3845265979867993
                ],
                "label": "Zr",
                "properties": {}
            },
            {
                "species": [
                    {
                        "element": "Zr",
                        "occu": 1
                    }
                ],
                "abc": [
                    0.22122925,
                    0.25,
                    0.65923505
                ],
                "xyz": [
                    1.310960586097195,
                    2.6341562225,
                    4.6130434220132015
                ],
                "label": "Zr",
                "properties": {}
            },
            {
                "species": [
                    {
                        "element": "Zr",
                        "occu": 1
                    }
                ],
                "abc": [
                    0.72122925,
                    0.25,
                    0.84076495
                ],
                "xyz": [
                    4.273861256097195,
                    2.6341562225,
                    5.883311607986799
                ],
                "label": "Zr",
                "properties": {}
            },
            {
                "species": [
                    {
                        "element": "O",
                        "occu": 1
                    }
                ],
                "abc": [
                    0.98414644,
                    0.37836757,
                    0.7722867
                ],
                "xyz": [
                    5.8318562929082285,
                    3.986717155630817,
                    5.404130258764734
                ],
                "label": "O",
                "properties": {}
            },
            {
                "species": [
                    {
                        "element": "O",
                        "occu": 1
                    }
                ],
                "abc": [
                    0.48414644,
                    0.12163243,
                    0.7277133
                ],
                "xyz": [
                    2.8689556229082296,
                    1.2815952893691829,
                    5.092224771235267
                ],
                "label": "O",
                "properties": {}
            },
            {
                "species": [
                    {
                        "element": "O",
                        "occu": 1
                    }
                ],
                "abc": [
                    0.51585356,
                    0.62163243,
                    0.2722867
                ],
                "xyz": [
                    3.0568457170917704,
                    6.549907734369183,
                    1.905345248764734
                ],
                "label": "O",
                "properties": {}
            },
            {
                "species": [
                    {
                        "element": "O",
                        "occu": 1
                    }
                ],
                "abc": [
                    0.01585356,
                    0.87836757,
                    0.2277133
                ],
                "xyz": [
                    0.09394504709177039,
                    9.255029600630818,
                    1.5934397612352662
                ],
                "label": "O",
                "properties": {}
            },
            {
                "species": [
                    {
                        "element": "O",
                        "occu": 1
                    }
                ],
                "abc": [
                    0.01585356,
                    0.62163243,
                    0.2277133
                ],
                "xyz": [
                    0.09394504709177039,
                    6.549907734369183,
                    1.5934397612352662
                ],
                "label": "O",
                "properties": {}
            },
            {
                "species": [
                    {
                        "element": "O",
                        "occu": 1
                    }
                ],
                "abc": [
                    0.51585356,
                    0.87836757,
                    0.2722867
                ],
                "xyz": [
                    3.0568457170917704,
                    9.255029600630818,
                    1.905345248764734
                ],
                "label": "O",
                "properties": {}
            },
            {
                "species": [
                    {
                        "element": "O",
                        "occu": 1
                    }
                ],
                "abc": [
                    0.48414644,
                    0.37836757,
                    0.7277133
                ],
                "xyz": [
                    2.8689556229082296,
                    3.986717155630817,
                    5.092224771235267
                ],
                "label": "O",
                "properties": {}
            },
            {
                "species": [
                    {
                        "element": "O",
                        "occu": 1
                    }
                ],
                "abc": [
                    0.98414644,
                    0.12163243,
                    0.7722867
                ],
                "xyz": [
                    5.8318562929082285,
                    1.2815952893691829,
                    5.404130258764734
                ],
                "label": "O",
                "properties": {}
            },
            {
                "species": [
                    {
                        "element": "O",
                        "occu": 1
                    }
                ],
                "abc": [
                    0.15152233,
                    0.25,
                    0.38875469
                ],
                "xyz": [
                    0.8978912261539223,
                    2.6341562225,
                    2.720338163878394
                ],
                "label": "O",
                "properties": {}
            },
            {
                "species": [
                    {
                        "element": "O",
                        "occu": 1
                    }
                ],
                "abc": [
                    0.84847767,
                    0.75,
                    0.61124531
                ],
                "xyz": [
                    5.027910113846077,
                    7.902468667500001,
                    4.277231856121607
                ],
                "label": "O",
                "properties": {}
            },
            {
                "species": [
                    {
                        "element": "O",
                        "occu": 1
                    }
                ],
                "abc": [
                    0.34847767,
                    0.75,
                    0.88875469
                ],
                "xyz": [
                    2.0650094438460775,
                    7.902468667500001,
                    6.219123173878394
                ],
                "label": "O",
                "properties": {}
            },
            {
                "species": [
                    {
                        "element": "O",
                        "occu": 1
                    }
                ],
                "abc": [
                    0.65152233,
                    0.25,
                    0.11124531
                ],
                "xyz": [
                    3.860791896153922,
                    2.6341562225,
                    0.7784468461216062
                ],
                "label": "O",
                "properties": {}
            }
        ]
    },
    "spacegroup": {
        "source": "spglib",
        "symbol": "Pnma",
        "number": 62,
        "point_group": "mmm",
        "crystal_system": "orthorhombic",
        "hall": "-P 2ac 2n"
    },
    "dielectric": {
        "epsilon_ionic": [
            [
                7.59555416,
                1e-08,
                9e-08
            ],
            [
                1e-08,
                3.91447011,
                2.6e-07
            ],
            [
                9e-08,
                2.6e-07,
                4.53681365
            ]
        ],
        "epsilon_ionic_avg": 5.348945973333332,
        "epsilon_ionic_eig": [
            7.595554160000002,
            4.536813650000102,
            3.91447010999989
        ],
        "epsilon_electronic": [
            [
                3.29425924,
                0.0,
                0.0
            ],
            [
                0.0,
                2.87250005,
                0.0
            ],
            [
                -0.0,
                0.0,
                3.05411031
            ]
        ],
        "epsilon_electronic_avg": 3.0736232,
        "epsilon_electronic_eig": [
            3.29425924,
            2.87250005,
            3.05411031
        ]
    },
    "phonon": {
        "lowest_freq": -0.11373036638287119,
        "frequency": [
            -0.11373036638287119,
            -0.05114456265055524,
            -0.04490129967027309,
            1.8107498036291172,
            2.045221558394222,
            2.101997059335828,
            2.1038419848527186,
            2.4843906174721955,
            2.5573979851166255,
            2.7798214434455053,
            2.8448929176642235,
            2.860885637771131,
            3.1262636211608927,
            3.155841231271133,
            3.18667350877177,
            3.2250283393527166,
            3.30780544417294,
            3.4183676378579473,
            3.59284936682085,
            3.735257479381905,
            3.859703451765176,
            3.8905185715779242,
            3.9050991212662427,
            4.150114298828464,
            4.244891535494697,
            4.27160767924033,
            4.2983258173098315,
            4.479652319957306,
            4.539890758882236,
            4.556834202126052,
            4.660167707091754,
            4.738611296162721,
            4.990271532129667,
            5.073388139555115,
            5.118823869366854,
            5.513376293940842,
            5.550915772837584,
            5.628509046061559,
            5.90228500304389,
            6.152460429849771,
            6.868216466738954,
            6.901591323565153,
            7.640962422512772,
            7.7431441008651065,
            8.144124330657698,
            8.278069499494336,
            8.398984275732872,
            8.463904541255937,
            9.709868551693047,
            9.963970002533646,
            10.096008738927157,
            10.269039255829176,
            11.844254179511923,
            11.877264804860074,
            12.298057782555372,
            12.564620715712492,
            13.051415542490796,
            13.081483038421075,
            14.326021621321594,
            14.442918238714148,
            14.707110487618392,
            15.49336140140287,
            15.678205064842535,
            16.712661059484113,
            16.82096401904921,
            17.465873143949914,
            17.86972440722702,
            17.995782394256437,
            20.311085397941675,
            20.372846035191916,
            21.18744294535533,
            21.4189354708031
        ]
    },
    "born_effective_charge": {
        "avg_abs_trace": 1.975847222222222,
        "tensors": [
            [
                [
                    1.09653,
                    0.0359,
                    -0.01034
                ],
                [
                    0.04322,
                    1.27808,
                    0.10627
                ],
                [
                    0.08971,
                    0.06827,
                    1.22544
                ]
            ],
            [
                [
                    1.09653,
                    -0.0359,
                    -0.01034
                ],
                [
                    -0.04323,
                    1.27817,
                    -0.10634
                ],
                [
                    0.08971,
                    -0.06827,
                    1.22544
                ]
            ],
            [
                [
                    1.09656,
                    0.03589,
                    -0.0104
                ],
                [
                    0.04323,
                    1.27817,
                    0.10634
                ],
                [
                    0.08969,
                    0.06835,
                    1.22548
                ]
            ],
            [
                [
                    1.09656,
                    -0.03589,
                    0.0104
                ],
                [
                    -0.04322,
                    1.27808,
                    0.10627
                ],
                [
                    -0.08971,
                    0.06827,
                    1.22544
                ]
            ],
            [
                [
                    1.09656,
                    0.03589,
                    0.0104
                ],
                [
                    0.04323,
                    1.27817,
                    -0.10634
                ],
                [
                    -0.08971,
                    -0.06827,
                    1.22544
                ]
            ],
            [
                [
                    1.09656,
                    -0.03589,
                    -0.0104
                ],
                [
                    -0.04322,
                    1.27808,
                    -0.10627
                ],
                [
                    0.08969,
                    -0.06835,
                    1.22548
                ]
            ],
            [
                [
                    1.09653,
                    -0.0359,
                    0.01034
                ],
                [
                    -0.04323,
                    1.27817,
                    0.10634
                ],
                [
                    -0.08969,
                    0.06835,
                    1.22548
                ]
            ],
            [
                [
                    1.09653,
                    0.0359,
                    0.01034
                ],
                [
                    0.04322,
                    1.27808,
                    -0.10627
                ],
                [
                    -0.08969,
                    -0.06835,
                    1.22548
                ]
            ],
            [
                [
                    4.88608,
                    0.0,
                    0.02821
                ],
                [
                    0.00014,
                    2.70887,
                    0.00015
                ],
                [
                    -0.1587,
                    -0.0,
                    2.98694
                ]
            ],
            [
                [
                    4.88608,
                    0.0,
                    -0.02821
                ],
                [
                    0.00014,
                    2.70887,
                    -0.00015
                ],
                [
                    0.16128,
                    -0.0,
                    2.98791
                ]
            ],
            [
                [
                    4.88606,
                    0.0,
                    -0.02843
                ],
                [
                    -0.00014,
                    2.70887,
                    0.00015
                ],
                [
                    0.1587,
                    -0.0,
                    2.98694
                ]
            ],
            [
                [
                    4.88606,
                    0.0,
                    0.02843
                ],
                [
                    -0.00014,
                    2.70887,
                    -0.00015
                ],
                [
                    -0.16128,
                    -0.0,
                    2.98791
                ]
            ],
            [
                [
                    -2.86114,
                    -0.04016,
                    0.73513
                ],
                [
                    -0.01645,
                    -1.98035,
                    -0.09368
                ],
                [
                    0.48206,
                    -0.07707,
                    -1.23536
                ]
            ],
            [
                [
                    -2.86114,
                    0.04016,
                    -0.73513
                ],
                [
                    0.01635,
                    -1.98052,
                    -0.09362
                ],
                [
                    -0.48209,
                    -0.07717,
                    -1.23536
                ]
            ],
            [
                [
                    -2.86108,
                    -0.04039,
                    -0.73531
                ],
                [
                    -0.01635,
                    -1.98052,
                    0.09362
                ],
                [
                    -0.48206,
                    0.07707,
                    -1.23536
                ]
            ],
            [
                [
                    -2.86108,
                    0.04039,
                    0.73531
                ],
                [
                    0.01645,
                    -1.98035,
                    0.09368
                ],
                [
                    0.48209,
                    0.07717,
                    -1.23536
                ]
            ],
            [
                [
                    -2.86108,
                    -0.04039,
                    0.73531
                ],
                [
                    -0.01635,
                    -1.98052,
                    -0.09362
                ],
                [
                    0.48209,
                    -0.07717,
                    -1.23536
                ]
            ],
            [
                [
                    -2.86108,
                    0.04039,
                    -0.73531
                ],
                [
                    0.01645,
                    -1.98035,
                    -0.09368
                ],
                [
                    -0.48206,
                    -0.07707,
                    -1.23536
                ]
            ],
            [
                [
                    -2.86114,
                    -0.04016,
                    -0.73513
                ],
                [
                    -0.01645,
                    -1.98035,
                    0.09368
                ],
                [
                    -0.48209,
                    0.07717,
                    -1.23536
                ]
            ],
            [
                [
                    -2.86114,
                    0.04016,
                    0.73513
                ],
                [
                    0.01635,
                    -1.98052,
                    0.09362
                ],
                [
                    0.48206,
                    0.07707,
                    -1.23536
                ]
            ],
            [
                [
                    -1.35686,
                    0.0,
                    -0.19622
                ],
                [
                    -8e-05,
                    -1.30425,
                    -0.00026
                ],
                [
                    -0.28482,
                    -0.0,
                    -2.9677
                ]
            ],
            [
                [
                    -1.35703,
                    0.0,
                    -0.1963
                ],
                [
                    8e-05,
                    -1.30425,
                    0.00026
                ],
                [
                    -0.28555,
                    -0.0,
                    -2.96754
                ]
            ],
            [
                [
                    -1.35703,
                    0.0,
                    0.1963
                ],
                [
                    8e-05,
                    -1.30425,
                    -0.00026
                ],
                [
                    0.28482,
                    -0.0,
                    -2.9677
                ]
            ],
            [
                [
                    -1.35686,
                    0.0,
                    0.19622
                ],
                [
                    -8e-05,
                    -1.30425,
                    0.00026
                ],
                [
                    0.28555,
                    -0.0,
                    -2.96754
                ]
            ]
        ]
    },
    "band_gap": 3.5869,
    "is_direct": false,
    "formula": "K2ZrO3"
}