{
    "mp_id": "mp-19241",
    "nelements": 3,
    "nsites": 10,
    "elements": [
        "Ba",
        "Ni",
        "O"
    ],
    "structure": {
        "@module": "pymatgen.core.structure",
        "@class": "Structure",
        "charge": null,
        "lattice": {
            "matrix": [
                [
                    5.62152741,
                    0.0,
                    0.0
                ],
                [
                    -2.8107637,
                    4.86838505,
                    0.0
                ],
                [
                    0.0,
                    0.0,
                    4.73549983
                ]
            ],
            "a": 5.62152741,
            "b": 5.621526978704379,
            "c": 4.73549983,
            "alpha": 90.0,
            "beta": 90.0,
            "gamma": 120.00000247910349,
            "volume": 129.60002283225995
        },
        "sites": [
            {
                "species": [
                    {
                        "element": "Ba",
                        "occu": 1
                    }
                ],
                "abc": [
                    0.666667,
                    0.333333,
                    0.75
                ],
                "xyz": [
                    2.8107665174303698,
                    1.62279339387165,
                    3.5516248725
                ],
                "label": "Ba",
                "properties": {}
            },
            {
                "species": [
                    {
                        "element": "Ba",
                        "occu": 1
                    }
                ],
                "abc": [
                    0.333333,
                    0.666667,
                    0.25
                ],
                "xyz": [
                    -2.8074303701774994e-06,
                    3.24559165612835,
                    1.1838749575
                ],
                "label": "Ba",
                "properties": {}
            },
            {
                "species": [
                    {
                        "element": "Ni",
                        "occu": 1
                    }
                ],
                "abc": [
                    0.0,
                    0.0,
                    0.5
                ],
                "xyz": [
                    0.0,
                    0.0,
                    2.367749915
                ],
                "label": "Ni",
                "properties": {}
            },
            {
                "species": [
                    {
                        "element": "Ni",
                        "occu": 1
                    }
                ],
                "abc": [
                    0.0,
                    0.0,
                    0.0
                ],
                "xyz": [
                    0.0,
                    0.0,
                    0.0
                ],
                "label": "Ni",
                "properties": {}
            },
            {
                "species": [
                    {
                        "element": "O",
                        "occu": 1
                    }
                ],
                "abc": [
                    0.85292732,
                    0.14707268,
                    0.25
                ],
                "xyz": [
                    4.381367757912125,
                    0.7160064365754341,
                    1.1838749575
                ],
                "label": "O",
                "properties": {}
            },
            {
                "species": [
                    {
                        "element": "O",
                        "occu": 1
                    }
                ],
                "abc": [
                    0.70585464,
                    0.85292732,
                    0.75
                ],
                "xyz": [
                    1.5706040564413977,
                    4.152378613424566,
                    3.5516248725
                ],
                "label": "O",
                "properties": {}
            },
            {
                "species": [
                    {
                        "element": "O",
                        "occu": 1
                    }
                ],
                "abc": [
                    0.14707268,
                    0.29414536,
                    0.75
                ],
                "xyz": [
                    1.4707267625979625e-09,
                    1.4320128731508681,
                    3.5516248725
                ],
                "label": "O",
                "properties": {}
            },
            {
                "species": [
                    {
                        "element": "O",
                        "occu": 1
                    }
                ],
                "abc": [
                    0.85292732,
                    0.70585464,
                    0.25
                ],
                "xyz": [
                    2.810763708529273,
                    3.4363721768491318,
                    1.1838749575
                ],
                "label": "O",
                "properties": {}
            },
            {
                "species": [
                    {
                        "element": "O",
                        "occu": 1
                    }
                ],
                "abc": [
                    0.14707268,
                    0.85292732,
                    0.75
                ],
                "xyz": [
                    -1.5706040479121253,
                    4.152378613424566,
                    3.5516248725
                ],
                "label": "O",
                "properties": {}
            },
            {
                "species": [
                    {
                        "element": "O",
                        "occu": 1
                    }
                ],
                "abc": [
                    0.29414536,
                    0.14707268,
                    0.25
                ],
                "xyz": [
                    1.2401596535586017,
                    0.7160064365754341,
                    1.1838749575
                ],
                "label": "O",
                "properties": {}
            }
        ]
    },
    "spacegroup": {
        "source": "spglib",
        "symbol": "P6_3/mmc",
        "number": 194,
        "point_group": "6/mmm",
        "crystal_system": "hexagonal",
        "hall": "-P 6c 2c"
    },
    "dielectric": {
        "epsilon_ionic": [
            [
                8.09768179,
                1.31e-06,
                0.0
            ],
            [
                1.31e-06,
                8.09698253,
                -0.0
            ],
            [
                0.0,
                -0.0,
                301.43419743
            ]
        ],
        "epsilon_ionic_avg": 105.87628725,
        "epsilon_ionic_eig": [
            8.097681792454157,
            8.096982527545842,
            301.43419743
        ],
        "epsilon_electronic": [
            [
                4.93539149,
                -5.1e-07,
                -0.0
            ],
            [
                -5.1e-07,
                4.93539111,
                -0.0
            ],
            [
                0.0,
                0.0,
                8.51185011
            ]
        ],
        "epsilon_electronic_avg": 6.127544236666666,
        "epsilon_electronic_eig": [
            4.935391844242593,
            4.935390755757407,
            8.51185011
        ]
    },
    "phonon": {
        "lowest_freq": -0.1646419966194933,
        "frequency": [
            -0.1646419966194933,
            -0.03804117784329559,
            -0.038041173667292025,
            0.4397153341731296,
            2.084226540003129,
            3.5508244395843374,
            3.55082482846886,
            4.188700809134749,
            4.18870126424506,
            5.799184977013416,
            8.876337012868612,
            8.876337701215961,
            10.047316204652084,
            10.42159188119943,
            10.421592760624057,
            12.577776568264316,
            12.577776840299821,
            12.828537421742894,
            12.828537421742894,
            13.797781504353337,
            13.79778194717838,
            14.114775389436373,
            14.385116838654762,
            15.47361964057984,
            15.473620035445641,
            15.476498655227344,
            17.866249280457975,
            17.866250853592515,
            18.672811121926554,
            19.130476575942534
        ]
    },
    "born_effective_charge": {
        "avg_abs_trace": 2.129835,
        "tensors": [
            [
                [
                    3.2933,
                    8e-05,
                    0.0
                ],
                [
                    0.0,
                    3.29322,
                    0.0
                ],
                [
                    0.0,
                    0.0,
                    2.70887
                ]
            ],
            [
                [
                    3.2933,
                    -8e-05,
                    0.0
                ],
                [
                    0.0,
                    3.29338,
                    0.0
                ],
                [
                    0.0,
                    -0.0,
                    2.70887
                ]
            ],
            [
                [
                    1.08321,
                    -0.0,
                    0.0
                ],
                [
                    -0.0,
                    1.0827,
                    0.00011
                ],
                [
                    0.0,
                    -0.0,
                    4.51238
                ]
            ],
            [
                [
                    1.08321,
                    -0.0,
                    0.0
                ],
                [
                    -0.0,
                    1.0827,
                    -0.00011
                ],
                [
                    0.0,
                    0.0,
                    4.51238
                ]
            ],
            [
                [
                    -1.69375,
                    0.40627,
                    0.0
                ],
                [
                    0.40657,
                    -1.22427,
                    0.0
                ],
                [
                    -0.00023,
                    0.00013,
                    -2.40709
                ]
            ],
            [
                [
                    -1.69375,
                    -0.40627,
                    0.0
                ],
                [
                    -0.40669,
                    -1.22365,
                    0.0
                ],
                [
                    -0.00023,
                    -0.00013,
                    -2.40709
                ]
            ],
            [
                [
                    -0.98877,
                    0.00055,
                    0.0
                ],
                [
                    0.0,
                    -1.92788,
                    0.0
                ],
                [
                    -0.0,
                    0.00026,
                    -2.40709
                ]
            ],
            [
                [
                    -0.98877,
                    -0.00055,
                    -0.0
                ],
                [
                    0.0,
                    -1.92827,
                    0.0
                ],
                [
                    0.0,
                    -0.00026,
                    -2.40709
                ]
            ],
            [
                [
                    -1.69398,
                    0.40697,
                    0.0
                ],
                [
                    0.40669,
                    -1.22365,
                    0.0
                ],
                [
                    0.00023,
                    -0.00013,
                    -2.40709
                ]
            ],
            [
                [
                    -1.69398,
                    -0.40697,
                    0.0
                ],
                [
                    -0.40657,
                    -1.22427,
                    0.0
                ],
                [
                    0.00023,
                    0.00013,
                    -2.40709
                ]
            ]
        ]
    },
    "band_gap": 1.4676,
    "is_direct": false,
    "formula": "BaNiO3"
}