{
    "mp_id": "mp-1219784",
    "nelements": 4,
    "nsites": 18,
    "elements": [
        "O",
        "Rb",
        "Ti",
        "W"
    ],
    "structure": {
        "@module": "pymatgen.core.structure",
        "@class": "Structure",
        "charge": null,
        "lattice": {
            "matrix": [
                [
                    6.23371703,
                    -3.66797447,
                    -0.01426157
                ],
                [
                    6.23371703,
                    3.66797447,
                    -0.01426157
                ],
                [
                    -4.12207965,
                    0.0,
                    5.95699071
                ]
            ],
            "a": 7.232804996338742,
            "b": 7.232804996338742,
            "c": 7.244120302698626,
            "alpha": 119.47506234196916,
            "beta": 119.47506234196916,
            "gamma": 60.94573582160157,
            "volume": 271.98329348137185
        },
        "sites": [
            {
                "species": [
                    {
                        "element": "Rb",
                        "occu": 1
                    }
                ],
                "abc": [
                    0.80922887,
                    0.91633428,
                    0.62346311
                ],
                "xyz": [
                    8.186707796238732,
                    0.3928599094788825,
                    3.6893547146445624
                ],
                "label": "Rb",
                "properties": {}
            },
            {
                "species": [
                    {
                        "element": "Rb",
                        "occu": 1
                    }
                ],
                "abc": [
                    0.08366572,
                    0.19077113,
                    0.37653689
                ],
                "xyz": [
                    0.1586466137612672,
                    0.3928599094788827,
                    2.2391128553554376
                ],
                "label": "Rb",
                "properties": {}
            },
            {
                "species": [
                    {
                        "element": "Ti",
                        "occu": 1
                    }
                ],
                "abc": [
                    0.5086087,
                    0.4913913,
                    0.0
                ],
                "xyz": [
                    6.23371703,
                    -0.06315298363977817,
                    -0.01426157
                ],
                "label": "Ti",
                "properties": {}
            },
            {
                "species": [
                    {
                        "element": "W",
                        "occu": 1
                    }
                ],
                "abc": [
                    0.9869033,
                    0.51422764,
                    0.99122858
                ],
                "xyz": [
                    5.271702346821512,
                    -1.7337622534704002,
                    5.883330958566516
                ],
                "label": "W",
                "properties": {}
            },
            {
                "species": [
                    {
                        "element": "W",
                        "occu": 1
                    }
                ],
                "abc": [
                    0.48577236,
                    0.0130967,
                    0.00877142
                ],
                "xyz": [
                    3.073652063178489,
                    -1.7337622534704002,
                    0.045136611433484006
                ],
                "label": "W",
                "properties": {}
            },
            {
                "species": [
                    {
                        "element": "W",
                        "occu": 1
                    }
                ],
                "abc": [
                    0.48800359,
                    0.51199641,
                    0.5
                ],
                "xyz": [
                    4.172677204999999,
                    0.08800505122330526,
                    2.9642337850000002
                ],
                "label": "W",
                "properties": {}
            },
            {
                "species": [
                    {
                        "element": "O",
                        "occu": 1
                    }
                ],
                "abc": [
                    0.18778187,
                    0.18516732,
                    0.93955869
                ],
                "xyz": [
                    -1.5480760390019528,
                    -0.009590102650538501,
                    5.591623546850142
                ],
                "label": "O",
                "properties": {}
            },
            {
                "species": [
                    {
                        "element": "O",
                        "occu": 1
                    }
                ],
                "abc": [
                    0.57157484,
                    0.55295159,
                    0.31847637
                ],
                "xyz": [
                    5.697194593593233,
                    -0.06830960554842713,
                    1.8811232650462277
                ],
                "label": "O",
                "properties": {}
            },
            {
                "species": [
                    {
                        "element": "O",
                        "occu": 1
                    }
                ],
                "abc": [
                    0.19193421,
                    0.55150542,
                    0.93802498
                ],
                "xyz": [
                    0.7677786010582421,
                    1.3188980184270087,
                    5.577203475283917
                ],
                "label": "O",
                "properties": {}
            },
            {
                "species": [
                    {
                        "element": "O",
                        "occu": 1
                    }
                ],
                "abc": [
                    0.55999805,
                    0.18668648,
                    0.31397121
                ],
                "xyz": [
                    3.3604057352716694,
                    -1.369297308115618,
                    1.859674687484947
                ],
                "label": "O",
                "properties": {}
            },
            {
                "species": [
                    {
                        "element": "O",
                        "occu": 1
                    }
                ],
                "abc": [
                    0.56919015,
                    0.17485136,
                    0.94036222
                ],
                "xyz": [
                    0.7618962612230922,
                    -1.4464246142506911,
                    5.591117808497207
                ],
                "label": "O",
                "properties": {}
            },
            {
                "species": [
                    {
                        "element": "O",
                        "occu": 1
                    }
                ],
                "abc": [
                    0.19014719,
                    0.55764569,
                    0.30997996
                ],
                "xyz": [
                    3.3837671259449325,
                    1.3479751157632949,
                    1.8358830415025502
                ],
                "label": "O",
                "properties": {}
            },
            {
                "species": [
                    {
                        "element": "O",
                        "occu": 1
                    }
                ],
                "abc": [
                    0.81483268,
                    0.81221813,
                    0.06044131
                ],
                "xyz": [
                    9.893430449001954,
                    -0.009590102650538501,
                    0.3368440231498584
                ],
                "label": "O",
                "properties": {}
            },
            {
                "species": [
                    {
                        "element": "O",
                        "occu": 1
                    }
                ],
                "abc": [
                    0.44704841,
                    0.42842516,
                    0.68152363
                ],
                "xyz": [
                    2.6481598164067677,
                    -0.06830960554842735,
                    4.047344304953773
                ],
                "label": "O",
                "properties": {}
            },
            {
                "species": [
                    {
                        "element": "O",
                        "occu": 1
                    }
                ],
                "abc": [
                    0.82514864,
                    0.43080985,
                    0.05963778
                ],
                "xyz": [
                    7.5834581487769075,
                    -1.4464246142506914,
                    0.33734976150279455
                ],
                "label": "O",
                "properties": {}
            },
            {
                "species": [
                    {
                        "element": "O",
                        "occu": 1
                    }
                ],
                "abc": [
                    0.44235431,
                    0.80985281,
                    0.69002004
                ],
                "xyz": [
                    4.961587284055067,
                    1.347975115763295,
                    4.09258452849745
                ],
                "label": "O",
                "properties": {}
            },
            {
                "species": [
                    {
                        "element": "O",
                        "occu": 1
                    }
                ],
                "abc": [
                    0.44849458,
                    0.80806579,
                    0.06197502
                ],
                "xyz": [
                    7.5775758089417575,
                    1.318898018427009,
                    0.35126409471608333
                ],
                "label": "O",
                "properties": {}
            },
            {
                "species": [
                    {
                        "element": "O",
                        "occu": 1
                    }
                ],
                "abc": [
                    0.81331352,
                    0.44000195,
                    0.68602879
                ],
                "xyz": [
                    4.984948674728331,
                    -1.369297308115618,
                    4.068792882515053
                ],
                "label": "O",
                "properties": {}
            }
        ]
    },
    "spacegroup": {
        "source": "spglib",
        "symbol": "C2",
        "number": 5,
        "point_group": "2",
        "crystal_system": "monoclinic",
        "hall": "C 2y"
    },
    "dielectric": {
        "epsilon_ionic": [
            [
                93.50026187,
                0.00107663,
                71.23234394
            ],
            [
                0.00107663,
                45.27175226,
                -0.00135338
            ],
            [
                71.23234394,
                -0.00135338,
                156.07188921
            ]
        ],
        "epsilon_ionic_avg": 98.28130111333333,
        "epsilon_ionic_eig": [
            202.5861331265706,
            46.98601952697838,
            45.27175068645103
        ],
        "epsilon_electronic": [
            [
                5.37951576,
                0.0,
                -0.05500005
            ],
            [
                0.0,
                5.09756177,
                0.0
            ],
            [
                -0.05500323,
                0.0,
                5.29797429
            ]
        ],
        "epsilon_electronic_avg": 5.258350606666666,
        "epsilon_electronic_eig": [
            5.407209857086275,
            5.2702801929137255,
            5.09756177
        ]
    },
    "phonon": {
        "lowest_freq": -0.11954556198825537,
        "frequency": [
            -0.11954556198825537,
            -0.04532047468290928,
            -0.0327854241563205,
            0.46331708392748927,
            1.0497912711526558,
            1.2014262962081155,
            1.312346480649374,
            1.6186287700307322,
            1.7062128864483035,
            1.7198872022068892,
            2.1519404485492006,
            2.700387172964899,
            3.9705692013139777,
            4.589785495250968,
            4.637833786361229,
            4.956579805851361,
            5.480965808010088,
            6.077971036799034,
            6.170965340843771,
            6.239647151742947,
            7.078262266745491,
            7.209716259993775,
            7.3672894151901485,
            8.247272955467826,
            8.263226220915728,
            8.795759134531444,
            9.162765030473134,
            9.337724800733502,
            9.627429653397899,
            9.668414073610206,
            9.90108149036272,
            9.928499930864144,
            10.950415747368227,
            11.460161441269642,
            11.917851790188534,
            12.888829779621307,
            13.044330229741366,
            13.058717003813422,
            13.340382066558114,
            13.699923505848204,
            14.304785880537713,
            14.533032573055605,
            16.29991424695446,
            17.67371653071125,
            18.084414958329482,
            18.245641699616503,
            18.72863896533764,
            19.172429493071213,
            19.190553004138806,
            19.529952689534742,
            20.527842169760476,
            26.004309688728778,
            27.137472223347565,
            27.18298839234744
        ]
    },
    "born_effective_charge": {
        "avg_abs_trace": 4.09179037037037,
        "tensors": [
            [
                [
                    1.37688,
                    0.07415,
                    -0.0441
                ],
                [
                    0.02981,
                    1.27099,
                    0.02445
                ],
                [
                    -0.03811,
                    -0.00102,
                    1.31921
                ]
            ],
            [
                [
                    1.37676,
                    -0.07416,
                    -0.04398
                ],
                [
                    -0.02981,
                    1.27099,
                    -0.02445
                ],
                [
                    -0.03816,
                    0.00097,
                    1.31922
                ]
            ],
            [
                [
                    10.15032,
                    0.00023,
                    -1.45357
                ],
                [
                    0.0,
                    6.16076,
                    0.0
                ],
                [
                    -1.43752,
                    -0.00038,
                    6.58669
                ]
            ],
            [
                [
                    8.38079,
                    -1.87646,
                    0.67372
                ],
                [
                    -1.93864,
                    9.96804,
                    -1.39694
                ],
                [
                    0.63178,
                    -1.43149,
                    7.98271
                ]
            ],
            [
                [
                    8.38104,
                    1.87666,
                    0.67381
                ],
                [
                    1.93864,
                    9.96804,
                    1.39694
                ],
                [
                    0.63148,
                    1.43128,
                    7.9827
                ]
            ],
            [
                [
                    7.54669,
                    0.00033,
                    0.14942
                ],
                [
                    0.0,
                    7.09993,
                    0.0
                ],
                [
                    0.20283,
                    -0.00044,
                    12.33656
                ]
            ],
            [
                [
                    -1.19437,
                    0.01976,
                    -0.22562
                ],
                [
                    0.18458,
                    -6.18395,
                    0.33004
                ],
                [
                    -0.19964,
                    0.07617,
                    -1.24089
                ]
            ],
            [
                [
                    -3.45553,
                    0.22148,
                    2.22188
                ],
                [
                    0.11757,
                    -1.1789,
                    -0.06016
                ],
                [
                    2.49345,
                    -0.24222,
                    -4.77489
                ]
            ],
            [
                [
                    -5.3178,
                    2.41101,
                    0.20885
                ],
                [
                    2.40888,
                    -2.7599,
                    0.11934
                ],
                [
                    0.10322,
                    0.18465,
                    -1.29103
                ]
            ],
            [
                [
                    -1.5592,
                    -0.86589,
                    -1.23918
                ],
                [
                    -0.86015,
                    -2.55839,
                    -1.96021
                ],
                [
                    -1.19733,
                    -1.88044,
                    -5.00996
                ]
            ],
            [
                [
                    -5.49269,
                    -1.76919,
                    0.36357
                ],
                [
                    -2.12331,
                    -2.50965,
                    -0.16385
                ],
                [
                    0.21792,
                    -0.23948,
                    -1.40938
                ]
            ],
            [
                [
                    -1.58647,
                    1.00406,
                    -1.30684
                ],
                [
                    0.92529,
                    -2.6786,
                    2.16463
                ],
                [
                    -1.39428,
                    2.38861,
                    -5.03769
                ]
            ],
            [
                [
                    -1.1943,
                    -0.01974,
                    -0.22558
                ],
                [
                    -0.18458,
                    -6.18395,
                    -0.33004
                ],
                [
                    -0.19951,
                    -0.07613,
                    -1.24083
                ]
            ],
            [
                [
                    -3.45548,
                    -0.22201,
                    2.22189
                ],
                [
                    -0.11757,
                    -1.1789,
                    0.06016
                ],
                [
                    2.49347,
                    0.24289,
                    -4.77478
                ]
            ],
            [
                [
                    -5.49263,
                    1.76918,
                    0.36342
                ],
                [
                    2.12331,
                    -2.50965,
                    0.16385
                ],
                [
                    0.21796,
                    0.23941,
                    -1.40922
                ]
            ],
            [
                [
                    -1.58672,
                    -1.00423,
                    -1.30699
                ],
                [
                    -0.92529,
                    -2.6786,
                    -2.16463
                ],
                [
                    -1.3938,
                    -2.38844,
                    -5.03766
                ]
            ],
            [
                [
                    -5.31799,
                    -2.41114,
                    0.20846
                ],
                [
                    -2.40888,
                    -2.7599,
                    -0.11934
                ],
                [
                    0.10356,
                    -0.18432,
                    -1.29075
                ]
            ],
            [
                [
                    -1.55929,
                    0.86596,
                    -1.23916
                ],
                [
                    0.86015,
                    -2.55839,
                    1.96021
                ],
                [
                    -1.1973,
                    1.88037,
                    -5.01003
                ]
            ]
        ]
    },
    "band_gap": 2.8273,
    "is_direct": false,
    "formula": "Rb2Ti(WO4)3"
}