{
    "mp_id": "mp-1178815",
    "nelements": 3,
    "nsites": 20,
    "elements": [
        "Ag",
        "O",
        "V"
    ],
    "structure": {
        "@module": "pymatgen.core.structure",
        "@class": "Structure",
        "charge": null,
        "lattice": {
            "matrix": [
                [
                    5.17618505,
                    -4.91035243,
                    0.00319647
                ],
                [
                    5.17618505,
                    4.91035243,
                    0.00319647
                ],
                [
                    -1.16949227,
                    0.0,
                    5.3662834
                ]
            ],
            "a": 7.134736356451502,
            "b": 7.134736356451502,
            "c": 5.492240863136405,
            "alpha": 98.86140699085264,
            "beta": 98.86140699085264,
            "gamma": 86.98060564036604,
            "volume": 272.82521245659075
        },
        "sites": [
            {
                "species": [
                    {
                        "element": "V",
                        "occu": 1
                    }
                ],
                "abc": [
                    0.7197245,
                    0.88941735,
                    0.21474475
                ],
                "xyz": [
                    8.07807366215126,
                    0.8332516983511256,
                    1.1575247608114196
                ],
                "label": "V",
                "properties": {}
            },
            {
                "species": [
                    {
                        "element": "V",
                        "occu": 1
                    }
                ],
                "abc": [
                    0.11058265,
                    0.2802755,
                    0.28525525
                ],
                "xyz": [
                    1.68955030284874,
                    0.8332516983511254,
                    1.5320098791885806
                ],
                "label": "V",
                "properties": {}
            },
            {
                "species": [
                    {
                        "element": "V",
                        "occu": 1
                    }
                ],
                "abc": [
                    0.2802755,
                    0.11058265,
                    0.78525525
                ],
                "xyz": [
                    1.1048041678487404,
                    -0.8332516983511254,
                    4.215151579188581
                ],
                "label": "V",
                "properties": {}
            },
            {
                "species": [
                    {
                        "element": "V",
                        "occu": 1
                    }
                ],
                "abc": [
                    0.88941735,
                    0.7197245,
                    0.71474475
                ],
                "xyz": [
                    7.49332752715126,
                    -0.8332516983511256,
                    3.84066646081142
                ],
                "label": "V",
                "properties": {}
            },
            {
                "species": [
                    {
                        "element": "Ag",
                        "occu": 1
                    }
                ],
                "abc": [
                    0.23032978,
                    0.76967022,
                    0.25
                ],
                "xyz": [
                    4.8838119825,
                    2.648351640151269,
                    1.34476732
                ],
                "label": "Ag",
                "properties": {}
            },
            {
                "species": [
                    {
                        "element": "Ag",
                        "occu": 1
                    }
                ],
                "abc": [
                    0.76967022,
                    0.23032978,
                    0.75
                ],
                "xyz": [
                    4.2990658475,
                    -2.648351640151269,
                    4.02790902
                ],
                "label": "Ag",
                "properties": {}
            },
            {
                "species": [
                    {
                        "element": "Ag",
                        "occu": 1
                    }
                ],
                "abc": [
                    0.59030589,
                    0.40969411,
                    0.25
                ],
                "xyz": [
                    4.8838119825,
                    -0.8868674928096256,
                    1.34476732
                ],
                "label": "Ag",
                "properties": {}
            },
            {
                "species": [
                    {
                        "element": "Ag",
                        "occu": 1
                    }
                ],
                "abc": [
                    0.40969411,
                    0.59030589,
                    0.75
                ],
                "xyz": [
                    4.2990658475,
                    0.8868674928096256,
                    4.02790902
                ],
                "label": "Ag",
                "properties": {}
            },
            {
                "species": [
                    {
                        "element": "O",
                        "occu": 1
                    }
                ],
                "abc": [
                    0.91415954,
                    0.80101438,
                    0.42453326
                ],
                "xyz": [
                    8.381569236925996,
                    -0.5555826113487385,
                    2.283648287865947
                ],
                "label": "O",
                "properties": {}
            },
            {
                "species": [
                    {
                        "element": "O",
                        "occu": 1
                    }
                ],
                "abc": [
                    0.19898562,
                    0.08584046,
                    0.07546674
                ],
                "xyz": [
                    1.3860547280740043,
                    -0.5555826113487388,
                    0.40588635213405366
                ],
                "label": "O",
                "properties": {}
            },
            {
                "species": [
                    {
                        "element": "O",
                        "occu": 1
                    }
                ],
                "abc": [
                    0.08584046,
                    0.19898562,
                    0.57546674
                ],
                "xyz": [
                    0.8013085930740044,
                    0.5555826113487388,
                    3.0890280521340534
                ],
                "label": "O",
                "properties": {}
            },
            {
                "species": [
                    {
                        "element": "O",
                        "occu": 1
                    }
                ],
                "abc": [
                    0.80101438,
                    0.91415954,
                    0.92453326
                ],
                "xyz": [
                    7.796823101925996,
                    0.5555826113487385,
                    4.966789987865947
                ],
                "label": "O",
                "properties": {}
            },
            {
                "species": [
                    {
                        "element": "O",
                        "occu": 1
                    }
                ],
                "abc": [
                    0.64208488,
                    0.09761458,
                    0.35027803
                ],
                "xyz": [
                    3.4191738379092445,
                    -2.6735410606678287,
                    1.8820556049066084
                ],
                "label": "O",
                "properties": {}
            },
            {
                "species": [
                    {
                        "element": "O",
                        "occu": 1
                    }
                ],
                "abc": [
                    0.90238542,
                    0.35791512,
                    0.14972197
                ],
                "xyz": [
                    6.348450127090755,
                    -2.673541060667829,
                    0.8074790350933919
                ],
                "label": "O",
                "properties": {}
            },
            {
                "species": [
                    {
                        "element": "O",
                        "occu": 1
                    }
                ],
                "abc": [
                    0.35791512,
                    0.90238542,
                    0.64972197
                ],
                "xyz": [
                    5.763703992090756,
                    2.673541060667829,
                    3.4906207350933918
                ],
                "label": "O",
                "properties": {}
            },
            {
                "species": [
                    {
                        "element": "O",
                        "occu": 1
                    }
                ],
                "abc": [
                    0.09761458,
                    0.64208488,
                    0.85027803
                ],
                "xyz": [
                    2.8344277029092444,
                    2.6735410606678287,
                    4.565197304906609
                ],
                "label": "O",
                "properties": {}
            },
            {
                "species": [
                    {
                        "element": "O",
                        "occu": 1
                    }
                ],
                "abc": [
                    0.729713,
                    0.54690516,
                    0.65602841
                ],
                "xyz": [
                    5.840791679955117,
                    -0.8976509213670507,
                    3.5245150381612897
                ],
                "label": "O",
                "properties": {}
            },
            {
                "species": [
                    {
                        "element": "O",
                        "occu": 1
                    }
                ],
                "abc": [
                    0.45309484,
                    0.270287,
                    0.84397159
                ],
                "xyz": [
                    2.757340015044883,
                    -0.8976509213670512,
                    4.531303001838711
                ],
                "label": "O",
                "properties": {}
            },
            {
                "species": [
                    {
                        "element": "O",
                        "occu": 1
                    }
                ],
                "abc": [
                    0.270287,
                    0.45309484,
                    0.34397159
                ],
                "xyz": [
                    3.3420861500448824,
                    0.8976509213670512,
                    1.848161301838711
                ],
                "label": "O",
                "properties": {}
            },
            {
                "species": [
                    {
                        "element": "O",
                        "occu": 1
                    }
                ],
                "abc": [
                    0.54690516,
                    0.729713,
                    0.15602841
                ],
                "xyz": [
                    6.425537814955117,
                    0.8976509213670507,
                    0.8413733381612893
                ],
                "label": "O",
                "properties": {}
            }
        ]
    },
    "spacegroup": {
        "source": "spglib",
        "symbol": "C2/c",
        "number": 15,
        "point_group": "2/m",
        "crystal_system": "monoclinic",
        "hall": "-C 2yc"
    },
    "dielectric": {
        "epsilon_ionic": [
            [
                4.0037557,
                -6e-08,
                -0.5144372
            ],
            [
                -6e-08,
                3.40613211,
                -8e-08
            ],
            [
                -0.5144372,
                -8e-08,
                4.31690548
            ]
        ],
        "epsilon_ionic_avg": 3.9089310966666684,
        "epsilon_ionic_eig": [
            4.698067820366611,
            3.622593359633436,
            3.406132109999957
        ],
        "epsilon_electronic": [
            [
                5.14093867,
                0.0,
                0.52908533
            ],
            [
                0.0,
                4.72752287,
                0.0
            ],
            [
                0.52909103,
                0.0,
                5.11588257
            ]
        ],
        "epsilon_electronic_avg": 4.99478137,
        "epsilon_electronic_eig": [
            5.657647102344511,
            4.599174137655488,
            4.72752287
        ]
    },
    "phonon": {
        "lowest_freq": -0.05566798386765048,
        "frequency": [
            -0.05566798386765048,
            -0.046938362070329476,
            -0.042212121722359774,
            1.2347928259542496,
            1.6277452524537825,
            1.712961074785297,
            1.911188477948623,
            1.9450696137108805,
            1.9976501536205007,
            2.1915827595629978,
            2.196262713460338,
            2.293553973568265,
            2.3796409281829307,
            2.6830277294690963,
            2.743198844435568,
            2.97157328211817,
            3.927023028270873,
            4.211861486914051,
            4.431972961345065,
            4.624563169387593,
            4.86298170261649,
            5.070079095411553,
            5.124910721205681,
            5.263910564518204,
            5.3358106167167705,
            5.616182160352339,
            5.865587493724209,
            6.004450529706468,
            6.354878402287777,
            6.828476510707947,
            6.9592951766688875,
            7.285312032195451,
            7.404954605611693,
            8.157603967671754,
            8.665606225683504,
            8.732325433880602,
            9.048464538579555,
            9.290997617379421,
            9.318391424504508,
            9.620604377859058,
            9.740167113414989,
            9.784124019734842,
            9.879860229045427,
            9.978681865394806,
            15.244659806846862,
            15.565292900791752,
            17.539687991695516,
            17.71871393403934,
            19.262655070046005,
            19.263883524175995,
            22.309705778617666,
            22.740610672435118,
            24.788557487784004,
            24.885433223009738,
            25.48802953583968,
            25.99743188838058,
            26.57678090570503,
            26.80741182073533,
            27.134873732249527,
            27.416014030418733
        ]
    },
    "born_effective_charge": {
        "avg_abs_trace": 2.0242671666666667,
        "tensors": [
            [
                [
                    3.40873,
                    0.74515,
                    0.14459
                ],
                [
                    -0.53731,
                    3.18133,
                    0.32412
                ],
                [
                    0.0545,
                    -0.45019,
                    4.48487
                ]
            ],
            [
                [
                    3.40882,
                    -0.74505,
                    0.14501
                ],
                [
                    0.53731,
                    3.18133,
                    -0.32412
                ],
                [
                    0.05413,
                    0.45124,
                    4.48507
                ]
            ],
            [
                [
                    3.40882,
                    0.74505,
                    0.14501
                ],
                [
                    -0.53723,
                    3.18144,
                    0.32384
                ],
                [
                    0.05413,
                    -0.45124,
                    4.48507
                ]
            ],
            [
                [
                    3.40873,
                    -0.74515,
                    0.14459
                ],
                [
                    0.53723,
                    3.18144,
                    -0.32384
                ],
                [
                    0.0545,
                    0.45019,
                    4.48487
                ]
            ],
            [
                [
                    1.50316,
                    0.00011,
                    0.04702
                ],
                [
                    0.0,
                    1.30349,
                    0.0
                ],
                [
                    0.03448,
                    -0.00015,
                    1.26256
                ]
            ],
            [
                [
                    1.50316,
                    -0.00011,
                    0.04702
                ],
                [
                    -0.0,
                    1.30389,
                    0.0
                ],
                [
                    0.03448,
                    0.00015,
                    1.26256
                ]
            ],
            [
                [
                    1.53566,
                    -6e-05,
                    0.09975
                ],
                [
                    0.0,
                    1.42493,
                    0.0
                ],
                [
                    0.24687,
                    -1e-05,
                    1.1838
                ]
            ],
            [
                [
                    1.53566,
                    6e-05,
                    0.09975
                ],
                [
                    -0.0,
                    1.42484,
                    0.0
                ],
                [
                    0.24687,
                    1e-05,
                    1.1838
                ]
            ],
            [
                [
                    -0.94227,
                    -0.06599,
                    0.78361
                ],
                [
                    -0.21831,
                    -1.66832,
                    1.59919
                ],
                [
                    0.83468,
                    1.69852,
                    -3.56822
                ]
            ],
            [
                [
                    -0.94218,
                    0.06609,
                    0.78304
                ],
                [
                    0.21831,
                    -1.66832,
                    -1.59919
                ],
                [
                    0.83485,
                    -1.69734,
                    -3.56821
                ]
            ],
            [
                [
                    -0.94218,
                    -0.06609,
                    0.78304
                ],
                [
                    -0.21865,
                    -1.66807,
                    1.59956
                ],
                [
                    0.83485,
                    1.69734,
                    -3.56821
                ]
            ],
            [
                [
                    -0.94227,
                    0.06599,
                    0.78361
                ],
                [
                    0.21865,
                    -1.66807,
                    -1.59956
                ],
                [
                    0.83468,
                    -1.69852,
                    -3.56822
                ]
            ],
            [
                [
                    -1.04891,
                    -1.16221,
                    -0.61091
                ],
                [
                    -0.556,
                    -1.98277,
                    -0.66131
                ],
                [
                    -0.36068,
                    -0.7166,
                    -1.18672
                ]
            ],
            [
                [
                    -1.04876,
                    1.16211,
                    -0.61116
                ],
                [
                    0.556,
                    -1.98277,
                    0.66131
                ],
                [
                    -0.36075,
                    0.71619,
                    -1.18714
                ]
            ],
            [
                [
                    -1.04876,
                    -1.16211,
                    -0.61116
                ],
                [
                    -0.55594,
                    -1.98326,
                    -0.66093
                ],
                [
                    -0.36075,
                    -0.71619,
                    -1.18714
                ]
            ],
            [
                [
                    -1.04891,
                    1.16221,
                    -0.61091
                ],
                [
                    0.55594,
                    -1.98326,
                    0.66093
                ],
                [
                    -0.36068,
                    0.7166,
                    -1.18672
                ]
            ],
            [
                [
                    -2.93696,
                    -0.12246,
                    -0.39049
                ],
                [
                    -0.37515,
                    -0.89445,
                    -0.17311
                ],
                [
                    -0.66918,
                    -0.13029,
                    -0.95317
                ]
            ],
            [
                [
                    -2.93729,
                    0.12243,
                    -0.39047
                ],
                [
                    0.37515,
                    -0.89445,
                    0.17311
                ],
                [
                    -0.6689,
                    0.13052,
                    -0.95283
                ]
            ],
            [
                [
                    -2.93729,
                    -0.12243,
                    -0.39047
                ],
                [
                    -0.37528,
                    -0.89447,
                    -0.17353
                ],
                [
                    -0.6689,
                    -0.13052,
                    -0.95283
                ]
            ],
            [
                [
                    -2.93696,
                    0.12246,
                    -0.39049
                ],
                [
                    0.37528,
                    -0.89447,
                    0.17353
                ],
                [
                    -0.66918,
                    0.13029,
                    -0.95317
                ]
            ]
        ]
    },
    "band_gap": 2.3689,
    "is_direct": false,
    "formula": "VAgO3"
}