{
    "mp_id": "mp-10547",
    "nelements": 3,
    "nsites": 12,
    "elements": [
        "Au",
        "O",
        "Rb"
    ],
    "structure": {
        "@module": "pymatgen.core.structure",
        "@class": "Structure",
        "charge": null,
        "lattice": {
            "matrix": [
                [
                    -4.93150917,
                    4.93150917,
                    2.90017335
                ],
                [
                    4.93150917,
                    -4.93150917,
                    2.90017335
                ],
                [
                    4.93150917,
                    4.93150917,
                    -2.90017335
                ]
            ],
            "a": 7.553182828956174,
            "b": 7.553182828956174,
            "c": 7.553182828956174,
            "alpha": 98.47806095345226,
            "beta": 98.47806095345226,
            "gamma": 134.8407428049212,
            "volume": 282.1263425853313
        },
        "sites": [
            {
                "species": [
                    {
                        "element": "Rb",
                        "occu": 1
                    }
                ],
                "abc": [
                    0.5,
                    0.80598838,
                    0.30598838
                ],
                "xyz": [
                    3.017969003766889,
                    2.220446049250313e-16,
                    2.90017335
                ],
                "label": "Rb",
                "properties": {}
            },
            {
                "species": [
                    {
                        "element": "Rb",
                        "occu": 1
                    }
                ],
                "abc": [
                    0.19401162,
                    0.5,
                    0.69401162
                ],
                "xyz": [
                    4.93150917,
                    1.913540166233111,
                    -4.440892098500626e-16
                ],
                "label": "Rb",
                "properties": {}
            },
            {
                "species": [
                    {
                        "element": "Rb",
                        "occu": 1
                    }
                ],
                "abc": [
                    0.5,
                    0.19401162,
                    0.69401162
                ],
                "xyz": [
                    1.913540166233111,
                    4.93150917,
                    -4.440892098500626e-16
                ],
                "label": "Rb",
                "properties": {}
            },
            {
                "species": [
                    {
                        "element": "Rb",
                        "occu": 1
                    }
                ],
                "abc": [
                    0.80598838,
                    0.5,
                    0.30598838
                ],
                "xyz": [
                    2.220446049250313e-16,
                    3.017969003766889,
                    2.90017335
                ],
                "label": "Rb",
                "properties": {}
            },
            {
                "species": [
                    {
                        "element": "Au",
                        "occu": 1
                    }
                ],
                "abc": [
                    0.14880906,
                    0.14880906,
                    0.29761712
                ],
                "xyz": [
                    1.4677015564289904,
                    1.4677015564289904,
                    2.9001733500289006e-06
                ],
                "label": "Au",
                "properties": {}
            },
            {
                "species": [
                    {
                        "element": "Au",
                        "occu": 1
                    }
                ],
                "abc": [
                    0.85119094,
                    0.85119094,
                    0.70238288
                ],
                "xyz": [
                    3.4638076135710096,
                    3.4638076135710096,
                    2.90017044982665
                ],
                "label": "Au",
                "properties": {}
            },
            {
                "species": [
                    {
                        "element": "Au",
                        "occu": 1
                    }
                ],
                "abc": [
                    0.85119094,
                    0.14880906,
                    0.0
                ],
                "xyz": [
                    -3.4638026820618393,
                    3.4638026820618393,
                    2.90017335
                ],
                "label": "Au",
                "properties": {}
            },
            {
                "species": [
                    {
                        "element": "Au",
                        "occu": 1
                    }
                ],
                "abc": [
                    0.14880906,
                    0.85119094,
                    0.0
                ],
                "xyz": [
                    3.4638026820618393,
                    -3.4638026820618393,
                    2.90017335
                ],
                "label": "Au",
                "properties": {}
            },
            {
                "species": [
                    {
                        "element": "O",
                        "occu": 1
                    }
                ],
                "abc": [
                    0.0,
                    0.28911495,
                    0.28911495
                ],
                "xyz": [
                    2.8515460542181827,
                    0.0,
                    0.0
                ],
                "label": "O",
                "properties": {}
            },
            {
                "species": [
                    {
                        "element": "O",
                        "occu": 1
                    }
                ],
                "abc": [
                    0.71088505,
                    0.0,
                    0.71088505
                ],
                "xyz": [
                    0.0,
                    7.011472285781817,
                    0.0
                ],
                "label": "O",
                "properties": {}
            },
            {
                "species": [
                    {
                        "element": "O",
                        "occu": 1
                    }
                ],
                "abc": [
                    0.28911495,
                    0.0,
                    0.28911495
                ],
                "xyz": [
                    0.0,
                    2.8515460542181827,
                    0.0
                ],
                "label": "O",
                "properties": {}
            },
            {
                "species": [
                    {
                        "element": "O",
                        "occu": 1
                    }
                ],
                "abc": [
                    0.0,
                    0.71088505,
                    0.71088505
                ],
                "xyz": [
                    7.011472285781817,
                    0.0,
                    0.0
                ],
                "label": "O",
                "properties": {}
            }
        ]
    },
    "spacegroup": {
        "source": "spglib",
        "symbol": "I4/mmm",
        "number": 139,
        "point_group": "4/mmm",
        "crystal_system": "tetragonal",
        "hall": "-I 4 2"
    },
    "dielectric": {
        "epsilon_ionic": [
            [
                3.16845342,
                2e-08,
                -1e-08
            ],
            [
                2e-08,
                3.16844793,
                -0.0
            ],
            [
                -1e-08,
                -0.0,
                2.55873265
            ]
        ],
        "epsilon_ionic_avg": 2.965211333333334,
        "epsilon_ionic_eig": [
            3.1684534200728596,
            3.1684479299271415,
            2.5587326499999996
        ],
        "epsilon_electronic": [
            [
                4.12834747,
                0.0,
                0.0
            ],
            [
                0.0,
                4.12834747,
                0.0
            ],
            [
                0.0,
                -0.0,
                3.16959615
            ]
        ],
        "epsilon_electronic_avg": 3.8087636966666665,
        "epsilon_electronic_eig": [
            4.12834747,
            4.12834747,
            3.16959615
        ]
    },
    "phonon": {
        "lowest_freq": -0.0062738552925007685,
        "frequency": [
            -0.0062738552925007685,
            -0.0062738552925007685,
            -0.0016293750492321832,
            1.0282781935801115,
            1.0282781935801115,
            1.5393092629459968,
            1.621722623127061,
            1.8909162964013968,
            2.0435849623742333,
            2.0435849623742333,
            2.2156994487180373,
            2.283427324612479,
            2.6411949014056493,
            2.70816620979913,
            2.70816620979913,
            2.7560432059703546,
            2.7560432059703546,
            2.773844572327373,
            2.795302792459494,
            2.933745832364653,
            2.944861596607821,
            3.3600638968204546,
            3.7632673593223536,
            3.7632673593223536,
            5.078747393111384,
            7.0859087546674875,
            7.0859087546674875,
            8.613183761764493,
            14.681111842750674,
            15.086232173545739,
            15.086232173545739,
            15.18063821898953,
            15.895522653028955,
            15.95181351699445,
            15.95181351699445,
            16.36321283409399
        ]
    },
    "born_effective_charge": {
        "avg_abs_trace": 1.0180719444444446,
        "tensors": [
            [
                [
                    1.00876,
                    0.0,
                    -0.0
                ],
                [
                    -2e-05,
                    1.50678,
                    0.0
                ],
                [
                    4e-05,
                    -0.0,
                    1.42107
                ]
            ],
            [
                [
                    1.50678,
                    0.00011,
                    0.0
                ],
                [
                    0.0,
                    1.00887,
                    -0.0
                ],
                [
                    0.0,
                    -4e-05,
                    1.42107
                ]
            ],
            [
                [
                    1.00892,
                    0.0,
                    -0.0
                ],
                [
                    2e-05,
                    1.50678,
                    0.0
                ],
                [
                    -4e-05,
                    -0.0,
                    1.42107
                ]
            ],
            [
                [
                    1.50678,
                    -0.00011,
                    -0.0
                ],
                [
                    0.0,
                    1.0088,
                    0.0
                ],
                [
                    0.0,
                    4e-05,
                    1.42107
                ]
            ],
            [
                [
                    0.63109,
                    -1.1868,
                    0.0
                ],
                [
                    -1.18679,
                    0.63118,
                    0.0
                ],
                [
                    4e-05,
                    4e-05,
                    -0.61772
                ]
            ],
            [
                [
                    0.63127,
                    -1.18669,
                    -0.0
                ],
                [
                    -1.1867,
                    0.63118,
                    -0.0
                ],
                [
                    -4e-05,
                    -4e-05,
                    -0.61772
                ]
            ],
            [
                [
                    0.63109,
                    1.1868,
                    -0.0
                ],
                [
                    1.1867,
                    0.63118,
                    0.0
                ],
                [
                    4e-05,
                    -4e-05,
                    -0.61772
                ]
            ],
            [
                [
                    0.63127,
                    1.18669,
                    -0.0
                ],
                [
                    1.18679,
                    0.63118,
                    -0.0
                ],
                [
                    -4e-05,
                    4e-05,
                    -0.61772
                ]
            ],
            [
                [
                    -1.87081,
                    -0.0,
                    0.0
                ],
                [
                    0.00012,
                    -1.9069,
                    -0.0
                ],
                [
                    2e-05,
                    0.0,
                    -0.80335
                ]
            ],
            [
                [
                    -1.9069,
                    0.00043,
                    -0.0
                ],
                [
                    -0.0,
                    -1.87107,
                    0.0
                ],
                [
                    0.0,
                    -2e-05,
                    -0.80335
                ]
            ],
            [
                [
                    -1.9069,
                    -0.00043,
                    -0.0
                ],
                [
                    -0.0,
                    -1.87107,
                    0.0
                ],
                [
                    0.0,
                    2e-05,
                    -0.80335
                ]
            ],
            [
                [
                    -1.87133,
                    0.0,
                    -0.0
                ],
                [
                    -0.00012,
                    -1.9069,
                    -0.0
                ],
                [
                    -2e-05,
                    -0.0,
                    -0.80335
                ]
            ]
        ]
    },
    "band_gap": 1.6073000000000002,
    "is_direct": false,
    "formula": "RbAuO"
}