{
    "mp_id": "mp-1218099",
    "nelements": 4,
    "nsites": 27,
    "elements": [
        "O",
        "Ta",
        "Ti",
        "Tl"
    ],
    "structure": {
        "@module": "pymatgen.core.structure",
        "@class": "Structure",
        "charge": null,
        "lattice": {
            "matrix": [
                [
                    7.55982791,
                    0.0,
                    0.0
                ],
                [
                    -3.77991395,
                    6.54700371,
                    0.0
                ],
                [
                    0.0,
                    0.0,
                    8.34042382
                ]
            ],
            "a": 7.55982791,
            "b": 7.559828506530976,
            "c": 8.34042382,
            "alpha": 90.0,
            "beta": 90.0,
            "gamma": 119.99999734598703,
            "volume": 412.8027828978237
        },
        "sites": [
            {
                "species": [
                    {
                        "element": "Ta",
                        "occu": 1
                    }
                ],
                "abc": [
                    0.33372443,
                    0.16686221,
                    0.84721346
                ],
                "xyz": [
                    1.8921744648560117,
                    1.0924475079287992,
                    7.066119322408617
                ],
                "label": "Ta",
                "properties": {}
            },
            {
                "species": [
                    {
                        "element": "Ta",
                        "occu": 1
                    }
                ],
                "abc": [
                    0.83313779,
                    0.66627557,
                    0.84721346
                ],
                "xyz": [
                    3.7799139961305177,
                    4.362108628672365,
                    7.066119322408617
                ],
                "label": "Ta",
                "properties": {}
            },
            {
                "species": [
                    {
                        "element": "Ta",
                        "occu": 1
                    }
                ],
                "abc": [
                    0.83313779,
                    0.16686221,
                    0.84721346
                ],
                "xyz": [
                    5.667653522410889,
                    1.0924475079287992,
                    7.066119322408617
                ],
                "label": "Ta",
                "properties": {}
            },
            {
                "species": [
                    {
                        "element": "Ta",
                        "occu": 1
                    }
                ],
                "abc": [
                    0.66627557,
                    0.83313779,
                    0.15278654
                ],
                "xyz": [
                    1.8877394951439883,
                    5.454556202071201,
                    1.2743044975913829
                ],
                "label": "Ta",
                "properties": {}
            },
            {
                "species": [
                    {
                        "element": "Ta",
                        "occu": 1
                    }
                ],
                "abc": [
                    0.16686221,
                    0.33372443,
                    0.15278654
                ],
                "xyz": [
                    -3.613051724471461e-08,
                    2.1848950813276353,
                    1.2743044975913829
                ],
                "label": "Ta",
                "properties": {}
            },
            {
                "species": [
                    {
                        "element": "Ta",
                        "occu": 1
                    }
                ],
                "abc": [
                    0.16686221,
                    0.83313779,
                    0.15278654
                ],
                "xyz": [
                    -1.8877395624108892,
                    5.454556202071201,
                    1.2743044975913829
                ],
                "label": "Ta",
                "properties": {}
            },
            {
                "species": [
                    {
                        "element": "Ti",
                        "occu": 1
                    }
                ],
                "abc": [
                    0.0,
                    0.0,
                    0.5
                ],
                "xyz": [
                    0.0,
                    0.0,
                    4.17021191
                ],
                "label": "Ti",
                "properties": {}
            },
            {
                "species": [
                    {
                        "element": "Tl",
                        "occu": 1
                    }
                ],
                "abc": [
                    0.666667,
                    0.333333,
                    0.28195554
                ],
                "xyz": [
                    3.7799177365806207,
                    2.18233238766543,
                    2.3516287019969626
                ],
                "label": "Tl",
                "properties": {}
            },
            {
                "species": [
                    {
                        "element": "Tl",
                        "occu": 1
                    }
                ],
                "abc": [
                    0.333333,
                    0.666667,
                    0.71804446
                ],
                "xyz": [
                    -3.7765806202294527e-06,
                    4.36467132233457,
                    5.988795118003037
                ],
                "label": "Tl",
                "properties": {}
            },
            {
                "species": [
                    {
                        "element": "O",
                        "occu": 1
                    }
                ],
                "abc": [
                    0.90310859,
                    0.4515543,
                    0.83960959
                ],
                "xyz": [
                    5.120509126690262,
                    2.956327677366453,
                    7.0026998239364335
                ],
                "label": "O",
                "properties": {}
            },
            {
                "species": [
                    {
                        "element": "O",
                        "occu": 1
                    }
                ],
                "abc": [
                    0.5484457,
                    0.09689141,
                    0.83960959
                ],
                "xyz": [
                    3.7799139176853176,
                    0.6343484207371312,
                    7.0026998239364335
                ],
                "label": "O",
                "properties": {}
            },
            {
                "species": [
                    {
                        "element": "O",
                        "occu": 1
                    }
                ],
                "abc": [
                    0.5484457,
                    0.4515543,
                    0.83960959
                ],
                "xyz": [
                    2.439318712227002,
                    2.956327677366453,
                    7.0026998239364335
                ],
                "label": "O",
                "properties": {}
            },
            {
                "species": [
                    {
                        "element": "O",
                        "occu": 1
                    }
                ],
                "abc": [
                    0.09689141,
                    0.5484457,
                    0.16039041
                ],
                "xyz": [
                    -1.3405951666902622,
                    3.590676032633547,
                    1.3377239960635663
                ],
                "label": "O",
                "properties": {}
            },
            {
                "species": [
                    {
                        "element": "O",
                        "occu": 1
                    }
                ],
                "abc": [
                    0.4515543,
                    0.90310859,
                    0.16039041
                ],
                "xyz": [
                    4.231468242466008e-08,
                    5.912655289262869,
                    1.3377239960635663
                ],
                "label": "O",
                "properties": {}
            },
            {
                "species": [
                    {
                        "element": "O",
                        "occu": 1
                    }
                ],
                "abc": [
                    0.4515543,
                    0.5484457,
                    0.16039041
                ],
                "xyz": [
                    1.3405952477729977,
                    3.590676032633547,
                    1.3377239960635663
                ],
                "label": "O",
                "properties": {}
            },
            {
                "species": [
                    {
                        "element": "O",
                        "occu": 1
                    }
                ],
                "abc": [
                    0.71678455,
                    0.85839178,
                    0.89836286
                ],
                "xyz": [
                    2.174120782759459,
                    5.619894168293504,
                    7.492726996547325
                ],
                "label": "O",
                "properties": {}
            },
            {
                "species": [
                    {
                        "element": "O",
                        "occu": 1
                    }
                ],
                "abc": [
                    0.14160822,
                    0.28321545,
                    0.89836286
                ],
                "xyz": [
                    3.7435308928301936e-06,
                    1.8542126018793195,
                    7.492726996547325
                ],
                "label": "O",
                "properties": {}
            },
            {
                "species": [
                    {
                        "element": "O",
                        "occu": 1
                    }
                ],
                "abc": [
                    0.14160822,
                    0.85839178,
                    0.89836286
                ],
                "xyz": [
                    -2.174113289945911,
                    5.619894168293504,
                    7.492726996547325
                ],
                "label": "O",
                "properties": {}
            },
            {
                "species": [
                    {
                        "element": "O",
                        "occu": 1
                    }
                ],
                "abc": [
                    0.28321545,
                    0.14160822,
                    0.10163714
                ],
                "xyz": [
                    1.6057931772405403,
                    0.9271095417064963,
                    0.8476968234526748
                ],
                "label": "O",
                "properties": {}
            },
            {
                "species": [
                    {
                        "element": "O",
                        "occu": 1
                    }
                ],
                "abc": [
                    0.85839178,
                    0.71678455,
                    0.10163714
                ],
                "xyz": [
                    3.779910216469108,
                    4.69279110812068,
                    0.8476968234526748
                ],
                "label": "O",
                "properties": {}
            },
            {
                "species": [
                    {
                        "element": "O",
                        "occu": 1
                    }
                ],
                "abc": [
                    0.85839178,
                    0.14160822,
                    0.10163714
                ],
                "xyz": [
                    5.954027249945911,
                    0.9271095417064963,
                    0.8476968234526748
                ],
                "label": "O",
                "properties": {}
            },
            {
                "species": [
                    {
                        "element": "O",
                        "occu": 1
                    }
                ],
                "abc": [
                    0.24550578,
                    0.12275339,
                    0.63669771
                ],
                "xyz": [
                    1.3919841964395294,
                    0.803666899745077,
                    5.310328746623452
                ],
                "label": "O",
                "properties": {}
            },
            {
                "species": [
                    {
                        "element": "O",
                        "occu": 1
                    }
                ],
                "abc": [
                    0.87724661,
                    0.75449422,
                    0.63669771
                ],
                "xyz": [
                    3.7799101788585165,
                    4.939676457513556,
                    5.310328746623452
                ],
                "label": "O",
                "properties": {}
            },
            {
                "species": [
                    {
                        "element": "O",
                        "occu": 1
                    }
                ],
                "abc": [
                    0.87724661,
                    0.12275339,
                    0.63669771
                ],
                "xyz": [
                    6.167836154960095,
                    0.803666899745077,
                    5.310328746623452
                ],
                "label": "O",
                "properties": {}
            },
            {
                "species": [
                    {
                        "element": "O",
                        "occu": 1
                    }
                ],
                "abc": [
                    0.75449422,
                    0.87724661,
                    0.36330229
                ],
                "xyz": [
                    2.38792976356047,
                    5.743336810254924,
                    3.030095073376548
                ],
                "label": "O",
                "properties": {}
            },
            {
                "species": [
                    {
                        "element": "O",
                        "occu": 1
                    }
                ],
                "abc": [
                    0.12275339,
                    0.24550578,
                    0.36330229
                ],
                "xyz": [
                    3.7811414839161728e-06,
                    1.607327252486444,
                    3.030095073376548
                ],
                "label": "O",
                "properties": {}
            },
            {
                "species": [
                    {
                        "element": "O",
                        "occu": 1
                    }
                ],
                "abc": [
                    0.12275339,
                    0.87724661,
                    0.36330229
                ],
                "xyz": [
                    -2.387922194960095,
                    5.743336810254924,
                    3.030095073376548
                ],
                "label": "O",
                "properties": {}
            }
        ]
    },
    "spacegroup": {
        "source": "spglib",
        "symbol": "P-3m1",
        "number": 164,
        "point_group": "-3m",
        "crystal_system": "trigonal",
        "hall": "-P 3 2\""
    },
    "dielectric": {
        "epsilon_ionic": [
            [
                28.83876991,
                -0.0,
                0.0
            ],
            [
                -0.0,
                28.83889483,
                0.0002262
            ],
            [
                0.0,
                0.0002262,
                13.39033451
            ]
        ],
        "epsilon_ionic_avg": 23.689333083333334,
        "epsilon_ionic_eig": [
            13.39033450668795,
            28.838894833312054,
            28.83876991
        ],
        "epsilon_electronic": [
            [
                4.84067198,
                0.0,
                0.0
            ],
            [
                0.0,
                4.84067184,
                -0.0
            ],
            [
                0.0,
                0.0,
                4.53668753
            ]
        ],
        "epsilon_electronic_avg": 4.739343783333333,
        "epsilon_electronic_eig": [
            4.84067198,
            4.84067184,
            4.53668753
        ]
    },
    "phonon": {
        "lowest_freq": -0.03826624845814721,
        "frequency": [
            -0.03826624845814721,
            -0.03140937834973458,
            -0.0314093778828674,
            0.769868416473764,
            0.7698684291720446,
            0.8423792083261877,
            0.8423792199314186,
            1.0598032719321124,
            1.1484638203006867,
            2.3081851302259104,
            2.6451113692214046,
            2.6451113830809416,
            3.2561376692715847,
            3.256137695541987,
            3.4406744450921543,
            3.8088257561518586,
            3.8088257625685373,
            4.734106255707934,
            4.734106258289204,
            4.8454765084473435,
            5.197158439199709,
            5.197158509738293,
            5.337600533136648,
            5.337600533136648,
            5.709762534274151,
            5.709762555676103,
            5.98229127706599,
            6.219249016046399,
            6.424821434321824,
            6.424821453341819,
            6.953686789786227,
            7.129689352148791,
            7.271410441477934,
            7.527012899419994,
            7.527012948124599,
            8.026199456991291,
            8.026199487441584,
            8.081998713111737,
            8.415087637618967,
            8.415087710226688,
            8.48182664133178,
            9.039337415184633,
            9.987667874596097,
            9.987667948006667,
            10.346365819425605,
            10.346365913912939,
            10.668911528941184,
            10.668911597664255,
            11.136653244353203,
            11.13665328824433,
            11.342996208800797,
            12.59788008319409,
            12.59788015109444,
            12.621118884064304,
            12.64443356638974,
            13.010272620301956,
            13.010272639087123,
            13.551365486972726,
            13.551365559113096,
            13.59117741981884,
            14.053836127903715,
            14.573303700774302,
            14.712672641971237,
            15.809792827211117,
            16.69501276597753,
            16.69501276597753,
            17.52773736261112,
            17.527737432329225,
            18.90079362348241,
            19.176010817598087,
            19.230101894627357,
            19.230101958173595,
            19.493668775735017,
            19.59514355474384,
            19.59514361710626,
            21.943324869169032,
            25.530189790451587,
            25.53018988618144,
            26.148919018553105,
            26.14891915875018,
            27.209347066136218
        ]
    },
    "born_effective_charge": {
        "avg_abs_trace": 3.747846296296296,
        "tensors": [
            [
                [
                    7.39975,
                    0.47139,
                    0.63181
                ],
                [
                    0.47121,
                    6.8556,
                    0.36463
                ],
                [
                    -0.15621,
                    -0.09019,
                    5.6857
                ]
            ],
            [
                [
                    6.58366,
                    3e-05,
                    -0.00018
                ],
                [
                    -0.0,
                    7.67168,
                    -0.72939
                ],
                [
                    -0.0,
                    0.18038,
                    5.6857
                ]
            ],
            [
                [
                    7.39972,
                    -0.47116,
                    -0.6315
                ],
                [
                    -0.47121,
                    6.8556,
                    0.36463
                ],
                [
                    0.15621,
                    -0.09019,
                    5.6857
                ]
            ],
            [
                [
                    7.39972,
                    0.47116,
                    0.6315
                ],
                [
                    0.471,
                    6.85555,
                    0.36458
                ],
                [
                    -0.15634,
                    -0.09026,
                    5.68545
                ]
            ],
            [
                [
                    6.58366,
                    -3e-05,
                    0.00018
                ],
                [
                    0.0,
                    7.67185,
                    -0.72946
                ],
                [
                    -0.0,
                    0.18052,
                    5.68545
                ]
            ],
            [
                [
                    7.39975,
                    -0.47139,
                    -0.63181
                ],
                [
                    -0.471,
                    6.85555,
                    0.36458
                ],
                [
                    0.15634,
                    -0.09026,
                    5.68545
                ]
            ],
            [
                [
                    6.13487,
                    0.0,
                    0.0
                ],
                [
                    0.0,
                    6.13474,
                    0.0001
                ],
                [
                    -0.0,
                    0.0,
                    9.66814
                ]
            ],
            [
                [
                    1.93198,
                    -4e-05,
                    1e-05
                ],
                [
                    0.0,
                    1.93202,
                    0.00016
                ],
                [
                    -0.0,
                    0.0,
                    1.23814
                ]
            ],
            [
                [
                    1.93198,
                    4e-05,
                    -1e-05
                ],
                [
                    0.0,
                    1.93204,
                    0.00016
                ],
                [
                    -0.0,
                    0.0,
                    1.23833
                ]
            ],
            [
                [
                    -2.88896,
                    1.91706,
                    0.04327
                ],
                [
                    1.91694,
                    -5.10233,
                    0.02492
                ],
                [
                    -0.06742,
                    -0.03892,
                    -0.75689
                ]
            ],
            [
                [
                    -6.209,
                    -0.00012,
                    -0.00024
                ],
                [
                    0.0,
                    -1.78209,
                    -0.04988
                ],
                [
                    -0.0,
                    0.07785,
                    -0.75689
                ]
            ],
            [
                [
                    -2.8888,
                    -1.91701,
                    -0.04303
                ],
                [
                    -1.91694,
                    -5.10233,
                    0.02492
                ],
                [
                    0.06742,
                    -0.03892,
                    -0.75689
                ]
            ],
            [
                [
                    -2.8888,
                    1.91701,
                    0.04303
                ],
                [
                    1.91696,
                    -5.10243,
                    0.02491
                ],
                [
                    -0.06746,
                    -0.03895,
                    -0.75712
                ]
            ],
            [
                [
                    -6.209,
                    0.00012,
                    0.00024
                ],
                [
                    0.0,
                    -1.78213,
                    -0.04984
                ],
                [
                    -0.0,
                    0.0779,
                    -0.75712
                ]
            ],
            [
                [
                    -2.88896,
                    -1.91706,
                    -0.04327
                ],
                [
                    -1.91696,
                    -5.10243,
                    0.02491
                ],
                [
                    0.06746,
                    -0.03895,
                    -0.75712
                ]
            ],
            [
                [
                    -2.35181,
                    0.98786,
                    0.0012
                ],
                [
                    0.98795,
                    -3.4926,
                    0.00059
                ],
                [
                    0.34699,
                    0.20034,
                    -2.52805
                ]
            ],
            [
                [
                    -4.06307,
                    -0.00014,
                    -0.00033
                ],
                [
                    0.0,
                    -1.78148,
                    -0.00112
                ],
                [
                    -0.0,
                    -0.40067,
                    -2.52805
                ]
            ],
            [
                [
                    -2.35187,
                    -0.98823,
                    -0.00088
                ],
                [
                    -0.98795,
                    -3.4926,
                    0.00059
                ],
                [
                    -0.34699,
                    0.20034,
                    -2.52805
                ]
            ],
            [
                [
                    -2.35187,
                    0.98823,
                    0.00088
                ],
                [
                    0.98796,
                    -3.49264,
                    0.00065
                ],
                [
                    0.3469,
                    0.20028,
                    -2.52845
                ]
            ],
            [
                [
                    -4.06307,
                    0.00014,
                    0.00033
                ],
                [
                    -0.0,
                    -1.78143,
                    -0.0012
                ],
                [
                    -0.0,
                    -0.40057,
                    -2.52845
                ]
            ],
            [
                [
                    -2.35181,
                    -0.98786,
                    -0.0012
                ],
                [
                    -0.98796,
                    -3.49264,
                    0.00065
                ],
                [
                    -0.3469,
                    0.20028,
                    -2.52845
                ]
            ],
            [
                [
                    -2.30418,
                    -0.74131,
                    -1.99821
                ],
                [
                    -0.74124,
                    -1.44824,
                    -1.15365
                ],
                [
                    -1.84846,
                    -1.06721,
                    -4.42422
                ]
            ],
            [
                [
                    -1.02066,
                    1e-05,
                    -1e-05
                ],
                [
                    0.0,
                    -2.73211,
                    2.30719
                ],
                [
                    -0.0,
                    2.13442,
                    -4.42422
                ]
            ],
            [
                [
                    -2.30419,
                    0.74126,
                    1.99817
                ],
                [
                    0.74124,
                    -1.44824,
                    -1.15365
                ],
                [
                    1.84846,
                    -1.06721,
                    -4.42422
                ]
            ],
            [
                [
                    -2.30419,
                    -0.74126,
                    -1.99817
                ],
                [
                    -0.74128,
                    -1.44831,
                    -1.1537
                ],
                [
                    -1.84811,
                    -1.06701,
                    -4.42462
                ]
            ],
            [
                [
                    -1.02066,
                    -1e-05,
                    1e-05
                ],
                [
                    0.0,
                    -2.7323,
                    2.30743
                ],
                [
                    0.0,
                    2.13402,
                    -4.42462
                ]
            ],
            [
                [
                    -2.30418,
                    0.74131,
                    1.99821
                ],
                [
                    0.74128,
                    -1.44831,
                    -1.1537
                ],
                [
                    1.84811,
                    -1.06701,
                    -4.42462
                ]
            ]
        ]
    },
    "band_gap": 3.297,
    "is_direct": true,
    "formula": "Ta6TiTl2O18"
}