{
    "mp_id": "mp-1207629",
    "nelements": 3,
    "nsites": 20,
    "elements": [
        "O",
        "Rh",
        "Y"
    ],
    "structure": {
        "@module": "pymatgen.core.structure",
        "@class": "Structure",
        "charge": null,
        "lattice": {
            "matrix": [
                [
                    5.70837329,
                    0.0,
                    0.0
                ],
                [
                    0.0,
                    7.53095856,
                    0.0
                ],
                [
                    0.0,
                    0.0,
                    5.18332881
                ]
            ],
            "a": 5.70837329,
            "b": 7.53095856,
            "c": 5.18332881,
            "alpha": 90.0,
            "beta": 90.0,
            "gamma": 90.0,
            "volume": 222.8288314975968
        },
        "sites": [
            {
                "species": [
                    {
                        "element": "Y",
                        "occu": 1
                    }
                ],
                "abc": [
                    0.41612352,
                    0.25,
                    0.03052191
                ],
                "xyz": [
                    2.375388386908781,
                    1.88273964,
                    0.1582050954392271
                ],
                "label": "Y",
                "properties": {}
            },
            {
                "species": [
                    {
                        "element": "Y",
                        "occu": 1
                    }
                ],
                "abc": [
                    0.58387648,
                    0.75,
                    0.96947809
                ],
                "xyz": [
                    3.3329849030912193,
                    5.64821892,
                    5.025123714560773
                ],
                "label": "Y",
                "properties": {}
            },
            {
                "species": [
                    {
                        "element": "Y",
                        "occu": 1
                    }
                ],
                "abc": [
                    0.08387648,
                    0.75,
                    0.53052191
                ],
                "xyz": [
                    0.47879825809121923,
                    5.64821892,
                    2.7498695004392273
                ],
                "label": "Y",
                "properties": {}
            },
            {
                "species": [
                    {
                        "element": "Y",
                        "occu": 1
                    }
                ],
                "abc": [
                    0.91612352,
                    0.25,
                    0.46947809
                ],
                "xyz": [
                    5.22957503190878,
                    1.88273964,
                    2.433459309560773
                ],
                "label": "Y",
                "properties": {}
            },
            {
                "species": [
                    {
                        "element": "Rh",
                        "occu": 1
                    }
                ],
                "abc": [
                    0.0,
                    0.0,
                    0.0
                ],
                "xyz": [
                    0.0,
                    0.0,
                    0.0
                ],
                "label": "Rh",
                "properties": {}
            },
            {
                "species": [
                    {
                        "element": "Rh",
                        "occu": 1
                    }
                ],
                "abc": [
                    0.5,
                    0.0,
                    0.5
                ],
                "xyz": [
                    2.854186645,
                    0.0,
                    2.591664405
                ],
                "label": "Rh",
                "properties": {}
            },
            {
                "species": [
                    {
                        "element": "Rh",
                        "occu": 1
                    }
                ],
                "abc": [
                    0.0,
                    0.5,
                    0.0
                ],
                "xyz": [
                    0.0,
                    3.76547928,
                    0.0
                ],
                "label": "Rh",
                "properties": {}
            },
            {
                "species": [
                    {
                        "element": "Rh",
                        "occu": 1
                    }
                ],
                "abc": [
                    0.5,
                    0.5,
                    0.5
                ],
                "xyz": [
                    2.854186645,
                    3.76547928,
                    2.591664405
                ],
                "label": "Rh",
                "properties": {}
            },
            {
                "species": [
                    {
                        "element": "O",
                        "occu": 1
                    }
                ],
                "abc": [
                    0.19091223,
                    0.06091558,
                    0.32253567
                ],
                "xyz": [
                    1.0897982744663366,
                    0.4587527086383648,
                    1.6718084305636527
                ],
                "label": "O",
                "properties": {}
            },
            {
                "species": [
                    {
                        "element": "O",
                        "occu": 1
                    }
                ],
                "abc": [
                    0.80908777,
                    0.93908442,
                    0.67746433
                ],
                "xyz": [
                    4.618575015533663,
                    7.072205851361636,
                    3.5115203794363468
                ],
                "label": "O",
                "properties": {}
            },
            {
                "species": [
                    {
                        "element": "O",
                        "occu": 1
                    }
                ],
                "abc": [
                    0.30908777,
                    0.93908442,
                    0.82253567
                ],
                "xyz": [
                    1.7643883705336632,
                    7.072205851361636,
                    4.263472835563653
                ],
                "label": "O",
                "properties": {}
            },
            {
                "species": [
                    {
                        "element": "O",
                        "occu": 1
                    }
                ],
                "abc": [
                    0.80908777,
                    0.56091558,
                    0.67746433
                ],
                "xyz": [
                    4.618575015533663,
                    4.224231988638365,
                    3.5115203794363468
                ],
                "label": "O",
                "properties": {}
            },
            {
                "species": [
                    {
                        "element": "O",
                        "occu": 1
                    }
                ],
                "abc": [
                    0.69091223,
                    0.06091558,
                    0.17746433
                ],
                "xyz": [
                    3.943984919466337,
                    0.4587527086383648,
                    0.9198559744363473
                ],
                "label": "O",
                "properties": {}
            },
            {
                "species": [
                    {
                        "element": "O",
                        "occu": 1
                    }
                ],
                "abc": [
                    0.19091223,
                    0.43908442,
                    0.32253567
                ],
                "xyz": [
                    1.0897982744663366,
                    3.306726571361635,
                    1.6718084305636527
                ],
                "label": "O",
                "properties": {}
            },
            {
                "species": [
                    {
                        "element": "O",
                        "occu": 1
                    }
                ],
                "abc": [
                    0.69091223,
                    0.43908442,
                    0.17746433
                ],
                "xyz": [
                    3.943984919466337,
                    3.306726571361635,
                    0.9198559744363473
                ],
                "label": "O",
                "properties": {}
            },
            {
                "species": [
                    {
                        "element": "O",
                        "occu": 1
                    }
                ],
                "abc": [
                    0.30908777,
                    0.56091558,
                    0.82253567
                ],
                "xyz": [
                    1.7643883705336632,
                    4.224231988638365,
                    4.263472835563653
                ],
                "label": "O",
                "properties": {}
            },
            {
                "species": [
                    {
                        "element": "O",
                        "occu": 1
                    }
                ],
                "abc": [
                    0.54994567,
                    0.25,
                    0.63102094
                ],
                "xyz": [
                    3.1392951735791548,
                    1.88273964,
                    3.270789018015281
                ],
                "label": "O",
                "properties": {}
            },
            {
                "species": [
                    {
                        "element": "O",
                        "occu": 1
                    }
                ],
                "abc": [
                    0.45005433,
                    0.75,
                    0.36897906
                ],
                "xyz": [
                    2.5690781164208456,
                    5.64821892,
                    1.9125397919847187
                ],
                "label": "O",
                "properties": {}
            },
            {
                "species": [
                    {
                        "element": "O",
                        "occu": 1
                    }
                ],
                "abc": [
                    0.95005433,
                    0.75,
                    0.13102094
                ],
                "xyz": [
                    5.423264761420845,
                    5.64821892,
                    0.6791246130152814
                ],
                "label": "O",
                "properties": {}
            },
            {
                "species": [
                    {
                        "element": "O",
                        "occu": 1
                    }
                ],
                "abc": [
                    0.04994567,
                    0.25,
                    0.86897906
                ],
                "xyz": [
                    0.2851085285791543,
                    1.88273964,
                    4.504204196984719
                ],
                "label": "O",
                "properties": {}
            }
        ]
    },
    "spacegroup": {
        "source": "spglib",
        "symbol": "Pnma",
        "number": 62,
        "point_group": "mmm",
        "crystal_system": "orthorhombic",
        "hall": "-P 2ac 2n"
    },
    "dielectric": {
        "epsilon_ionic": [
            [
                6.80710206,
                -1e-08,
                0.0
            ],
            [
                -1e-08,
                10.26008618,
                -3e-08
            ],
            [
                0.0,
                -3e-08,
                9.06609991
            ]
        ],
        "epsilon_ionic_avg": 8.71109605,
        "epsilon_ionic_eig": [
            6.80710206,
            10.26008618,
            9.06609991
        ],
        "epsilon_electronic": [
            [
                7.99458221,
                0.0,
                0.0
            ],
            [
                0.0,
                7.21944182,
                0.0
            ],
            [
                0.0,
                0.0,
                7.40311746
            ]
        ],
        "epsilon_electronic_avg": 7.539047163333334,
        "epsilon_electronic_eig": [
            7.99458221,
            7.21944182,
            7.40311746
        ]
    },
    "phonon": {
        "lowest_freq": -0.023941352113969517,
        "frequency": [
            -0.023941352113969517,
            -0.014163966914769045,
            -0.010053968290330352,
            2.1862230021743656,
            3.8384449838869337,
            3.879029959218353,
            4.150067292583419,
            4.279280160520467,
            4.398285309446456,
            4.479751914177692,
            4.692645459354797,
            4.82611819862679,
            5.083150175264784,
            5.37665908009565,
            5.405902609660536,
            5.525710864622627,
            6.0621198743252,
            6.800812810667806,
            6.835172359208484,
            7.111724637003841,
            7.3151119963003515,
            7.654125375306719,
            7.872003684042423,
            8.001858905805491,
            8.059649846708737,
            8.101049905125125,
            8.195490268247157,
            8.284209104696643,
            8.434655234430426,
            9.204744468690494,
            9.387055090077045,
            9.537055696627716,
            10.583977203041568,
            11.874920405207948,
            12.846390599166197,
            13.200442947451927,
            13.586944239288199,
            13.830676890716429,
            14.224573661472954,
            14.697117538790003,
            14.779809880568608,
            15.138746993594154,
            15.280727028440866,
            15.660543447710236,
            15.92242583720403,
            16.213245272516765,
            16.446890750236268,
            16.62447708929079,
            16.67539749799584,
            17.129104379728428,
            17.684075775705633,
            17.684094778677817,
            17.779385693618977,
            17.99752148889091,
            18.079005481161186,
            18.167569421969183,
            18.191313395747468,
            18.50761410145313,
            18.876501240960707,
            19.06813891144644
        ]
    },
    "born_effective_charge": {
        "avg_abs_trace": 2.391538666666667,
        "tensors": [
            [
                [
                    4.16779,
                    0.0,
                    0.17248
                ],
                [
                    3e-05,
                    3.83042,
                    -0.00018
                ],
                [
                    0.2625,
                    -0.0,
                    4.13157
                ]
            ],
            [
                [
                    4.16773,
                    0.0,
                    0.17266
                ],
                [
                    -3e-05,
                    3.83042,
                    0.00018
                ],
                [
                    0.26208,
                    -0.0,
                    4.13143
                ]
            ],
            [
                [
                    4.16773,
                    0.0,
                    -0.17266
                ],
                [
                    -3e-05,
                    3.83042,
                    -0.00018
                ],
                [
                    -0.2625,
                    -0.0,
                    4.13157
                ]
            ],
            [
                [
                    4.16779,
                    0.0,
                    -0.17248
                ],
                [
                    3e-05,
                    3.83042,
                    0.00018
                ],
                [
                    -0.26208,
                    -0.0,
                    4.13143
                ]
            ],
            [
                [
                    2.18737,
                    0.28454,
                    0.6123
                ],
                [
                    0.61114,
                    2.0143,
                    -0.81536
                ],
                [
                    -0.3293,
                    0.41336,
                    1.60519
                ]
            ],
            [
                [
                    2.18737,
                    0.28454,
                    -0.6123
                ],
                [
                    0.61114,
                    2.0143,
                    0.81536
                ],
                [
                    0.3293,
                    -0.41336,
                    1.60519
                ]
            ],
            [
                [
                    2.18737,
                    -0.28454,
                    0.6123
                ],
                [
                    -0.61114,
                    2.0143,
                    0.81536
                ],
                [
                    -0.3293,
                    -0.41336,
                    1.60519
                ]
            ],
            [
                [
                    2.18737,
                    -0.28454,
                    -0.6123
                ],
                [
                    -0.61114,
                    2.0143,
                    -0.81536
                ],
                [
                    0.3293,
                    0.41336,
                    1.60519
                ]
            ],
            [
                [
                    -2.49487,
                    0.10715,
                    -0.72318
                ],
                [
                    0.02341,
                    -1.45795,
                    0.11625
                ],
                [
                    -0.82286,
                    0.24974,
                    -2.07995
                ]
            ],
            [
                [
                    -2.49482,
                    0.10709,
                    -0.72305
                ],
                [
                    0.0235,
                    -1.45784,
                    0.11607
                ],
                [
                    -0.82289,
                    0.24962,
                    -2.08019
                ]
            ],
            [
                [
                    -2.49482,
                    0.10709,
                    0.72305
                ],
                [
                    0.0235,
                    -1.45784,
                    -0.11607
                ],
                [
                    0.82286,
                    -0.24974,
                    -2.07995
                ]
            ],
            [
                [
                    -2.49482,
                    -0.10709,
                    -0.72305
                ],
                [
                    -0.02341,
                    -1.45795,
                    -0.11625
                ],
                [
                    -0.82289,
                    -0.24962,
                    -2.08019
                ]
            ],
            [
                [
                    -2.49487,
                    0.10715,
                    0.72318
                ],
                [
                    0.02341,
                    -1.45795,
                    -0.11625
                ],
                [
                    0.82289,
                    -0.24962,
                    -2.08019
                ]
            ],
            [
                [
                    -2.49487,
                    -0.10715,
                    -0.72318
                ],
                [
                    -0.0235,
                    -1.45784,
                    -0.11607
                ],
                [
                    -0.82286,
                    -0.24974,
                    -2.07995
                ]
            ],
            [
                [
                    -2.49487,
                    -0.10715,
                    0.72318
                ],
                [
                    -0.0235,
                    -1.45784,
                    0.11607
                ],
                [
                    0.82289,
                    0.24962,
                    -2.08019
                ]
            ],
            [
                [
                    -2.49482,
                    -0.10709,
                    0.72305
                ],
                [
                    -0.02341,
                    -1.45795,
                    0.11625
                ],
                [
                    0.82286,
                    0.24974,
                    -2.07995
                ]
            ],
            [
                [
                    -1.36557,
                    0.0,
                    0.54261
                ],
                [
                    0.00042,
                    -2.92893,
                    0.00057
                ],
                [
                    0.57391,
                    -0.0,
                    -1.57654
                ]
            ],
            [
                [
                    -1.36531,
                    0.0,
                    0.5423
                ],
                [
                    -0.00042,
                    -2.92893,
                    -0.00057
                ],
                [
                    0.57431,
                    -0.0,
                    -1.57656
                ]
            ],
            [
                [
                    -1.36531,
                    0.0,
                    -0.5423
                ],
                [
                    -0.00042,
                    -2.92893,
                    0.00057
                ],
                [
                    -0.57391,
                    -0.0,
                    -1.57654
                ]
            ],
            [
                [
                    -1.36557,
                    0.0,
                    -0.54261
                ],
                [
                    0.00042,
                    -2.92893,
                    -0.00057
                ],
                [
                    -0.57431,
                    -0.0,
                    -1.57656
                ]
            ]
        ]
    },
    "band_gap": 1.6235,
    "is_direct": true,
    "formula": "YRhO3"
}