{
    "mp_id": "mp-1218879",
    "nelements": 4,
    "nsites": 24,
    "elements": [
        "Al",
        "O",
        "Si",
        "Sr"
    ],
    "structure": {
        "@module": "pymatgen.core.structure",
        "@class": "Structure",
        "charge": null,
        "lattice": {
            "matrix": [
                [
                    5.25477929,
                    0.0,
                    0.00010925
                ],
                [
                    0.0,
                    7.83722428,
                    0.0
                ],
                [
                    -0.06285836,
                    0.0,
                    7.84833017
                ]
            ],
            "a": 5.254779291135686,
            "b": 7.83722428,
            "c": 7.848581886605638,
            "alpha": 90.0,
            "beta": 90.45768878418366,
            "gamma": 90.0,
            "volume": 323.2169235308512
        },
        "sites": [
            {
                "species": [
                    {
                        "element": "Sr",
                        "occu": 1
                    }
                ],
                "abc": [
                    0.48279792,
                    0.84354314,
                    0.42283296
                ],
                "xyz": [
                    2.5104179248515313,
                    6.611036778035439,
                    3.318585422511163
                ],
                "label": "Sr",
                "properties": {}
            },
            {
                "species": [
                    {
                        "element": "Sr",
                        "occu": 1
                    }
                ],
                "abc": [
                    0.51720208,
                    0.34354314,
                    0.57716704
                ],
                "xyz": [
                    2.681503005148469,
                    2.6924246380354395,
                    4.5298539974888365
                ],
                "label": "Sr",
                "properties": {}
            },
            {
                "species": [
                    {
                        "element": "Sr",
                        "occu": 1
                    }
                ],
                "abc": [
                    0.49586254,
                    0.16504906,
                    0.09798506
                ],
                "xyz": [
                    2.5994890257026952,
                    1.2935265004231769,
                    0.7690732755897551
                ],
                "label": "Sr",
                "properties": {}
            },
            {
                "species": [
                    {
                        "element": "Sr",
                        "occu": 1
                    }
                ],
                "abc": [
                    0.50413746,
                    0.66504906,
                    0.90201494
                ],
                "xyz": [
                    2.592431904297305,
                    5.212138640423176,
                    7.079366144410245
                ],
                "label": "Sr",
                "properties": {}
            },
            {
                "species": [
                    {
                        "element": "Al",
                        "occu": 1
                    }
                ],
                "abc": [
                    0.00132013,
                    0.49937164,
                    0.24644023
                ],
                "xyz": [
                    -0.0085538369117151,
                    3.913687541751419,
                    1.9341444364349416
                ],
                "label": "Al",
                "properties": {}
            },
            {
                "species": [
                    {
                        "element": "Al",
                        "occu": 1
                    }
                ],
                "abc": [
                    0.99867987,
                    0.99937164,
                    0.75355977
                ],
                "xyz": [
                    5.200474766911715,
                    7.83229968175142,
                    5.914294983565058
                ],
                "label": "Al",
                "properties": {}
            },
            {
                "species": [
                    {
                        "element": "Al",
                        "occu": 1
                    }
                ],
                "abc": [
                    0.03291563,
                    0.6415894,
                    0.6070846
                ],
                "xyz": [
                    0.1348040285040467,
                    5.028280023470632,
                    4.764603977954959
                ],
                "label": "Al",
                "properties": {}
            },
            {
                "species": [
                    {
                        "element": "Al",
                        "occu": 1
                    }
                ],
                "abc": [
                    0.96708437,
                    0.1415894,
                    0.3929154
                ],
                "xyz": [
                    5.057116901495953,
                    1.109667883470632,
                    3.0838354420450407
                ],
                "label": "Al",
                "properties": {}
            },
            {
                "species": [
                    {
                        "element": "Si",
                        "occu": 1
                    }
                ],
                "abc": [
                    0.04298666,
                    0.35720889,
                    0.89158283
                ],
                "xyz": [
                    0.16984197621631264,
                    2.799526185739849,
                    6.997441120035586
                ],
                "label": "Si",
                "properties": {}
            },
            {
                "species": [
                    {
                        "element": "Si",
                        "occu": 1
                    }
                ],
                "abc": [
                    0.95701334,
                    0.85720889,
                    0.10841717
                ],
                "xyz": [
                    5.022078953783687,
                    6.718138325739849,
                    0.8509982999644139
                ],
                "label": "Si",
                "properties": {}
            },
            {
                "species": [
                    {
                        "element": "O",
                        "occu": 1
                    }
                ],
                "abc": [
                    0.8356902,
                    0.98683618,
                    0.2509017
                ],
                "xyz": [
                    4.375596286432747,
                    7.73405647027845,
                    1.969250680968639
                ],
                "label": "O",
                "properties": {}
            },
            {
                "species": [
                    {
                        "element": "O",
                        "occu": 1
                    }
                ],
                "abc": [
                    0.1643098,
                    0.48683618,
                    0.7490983
                ],
                "xyz": [
                    0.8163246435672541,
                    3.8154443302784506,
                    5.879188739031361
                ],
                "label": "O",
                "properties": {}
            },
            {
                "species": [
                    {
                        "element": "O",
                        "occu": 1
                    }
                ],
                "abc": [
                    0.70500791,
                    0.64251984,
                    0.61223513
                ],
                "xyz": [
                    3.6661768685479967,
                    5.0355720904297145,
                    4.805100464027039
                ],
                "label": "O",
                "properties": {}
            },
            {
                "species": [
                    {
                        "element": "O",
                        "occu": 1
                    }
                ],
                "abc": [
                    0.29499209,
                    0.14251984,
                    0.38776487
                ],
                "xyz": [
                    1.5257440614520028,
                    1.1169599504297152,
                    3.0433389559729602
                ],
                "label": "O",
                "properties": {}
            },
            {
                "species": [
                    {
                        "element": "O",
                        "occu": 1
                    }
                ],
                "abc": [
                    0.73640342,
                    0.35867383,
                    0.89526734
                ],
                "xyz": [
                    3.8133624037472096,
                    2.8110072490765927,
                    7.026434126811282
                ],
                "label": "O",
                "properties": {}
            },
            {
                "species": [
                    {
                        "element": "O",
                        "occu": 1
                    }
                ],
                "abc": [
                    0.26359658,
                    0.85867383,
                    0.10473266
                ],
                "xyz": [
                    1.3785585262527909,
                    6.729619389076592,
                    0.8220052931887172
                ],
                "label": "O",
                "properties": {}
            },
            {
                "species": [
                    {
                        "element": "O",
                        "occu": 1
                    }
                ],
                "abc": [
                    0.18397944,
                    0.58592118,
                    0.41348357
                ],
                "xyz": [
                    0.9407804520006523,
                    4.5919956980622505,
                    3.245175676984127
                ],
                "label": "O",
                "properties": {}
            },
            {
                "species": [
                    {
                        "element": "O",
                        "occu": 1
                    }
                ],
                "abc": [
                    0.81602056,
                    0.08592118,
                    0.58651643
                ],
                "xyz": [
                    4.251140477999348,
                    0.6733835580622504,
                    4.603263743015873
                ],
                "label": "O",
                "properties": {}
            },
            {
                "species": [
                    {
                        "element": "O",
                        "occu": 1
                    }
                ],
                "abc": [
                    0.18384477,
                    0.41795712,
                    0.07229419
                ],
                "xyz": [
                    0.9615193957498849,
                    3.275623688862874,
                    0.5674087575338347
                ],
                "label": "O",
                "properties": {}
            },
            {
                "species": [
                    {
                        "element": "O",
                        "occu": 1
                    }
                ],
                "abc": [
                    0.81615523,
                    0.91795712,
                    0.92770581
                ],
                "xyz": [
                    4.230401534250116,
                    7.194235828862873,
                    7.281030662466165
                ],
                "label": "O",
                "properties": {}
            },
            {
                "species": [
                    {
                        "element": "O",
                        "occu": 1
                    }
                ],
                "abc": [
                    0.82488559,
                    0.67061902,
                    0.15211241
                ],
                "xyz": [
                    4.325030178323184,
                    5.255791666173805,
                    1.1939185353851172
                ],
                "label": "O",
                "properties": {}
            },
            {
                "species": [
                    {
                        "element": "O",
                        "occu": 1
                    }
                ],
                "abc": [
                    0.17511441,
                    0.17061902,
                    0.84788759
                ],
                "xyz": [
                    0.8668907516768165,
                    1.3371795261738058,
                    6.6545208846148824
                ],
                "label": "O",
                "properties": {}
            },
            {
                "species": [
                    {
                        "element": "O",
                        "occu": 1
                    }
                ],
                "abc": [
                    0.81144937,
                    0.33070871,
                    0.32107212
                ],
                "xyz": [
                    4.243805277454624,
                    2.591838331619479,
                    2.519968656985533
                ],
                "label": "O",
                "properties": {}
            },
            {
                "species": [
                    {
                        "element": "O",
                        "occu": 1
                    }
                ],
                "abc": [
                    0.18855063,
                    0.83070871,
                    0.67892788
                ],
                "xyz": [
                    0.9481156525453759,
                    6.510450471619479,
                    5.328470763014467
                ],
                "label": "O",
                "properties": {}
            }
        ]
    },
    "spacegroup": {
        "source": "spglib",
        "symbol": "P2_1",
        "number": 4,
        "point_group": "2",
        "crystal_system": "monoclinic",
        "hall": "P 2yb"
    },
    "dielectric": {
        "epsilon_ionic": [
            [
                3.99120352,
                7.72e-06,
                0.11837072
            ],
            [
                7.72e-06,
                5.65151421,
                -1.005e-05
            ],
            [
                0.11837072,
                -1.005e-05,
                5.64283156
            ]
        ],
        "epsilon_ionic_avg": 5.095183096666666,
        "epsilon_ionic_eig": [
            3.9827631285326808,
            5.651271581375753,
            5.651514580091564
        ],
        "epsilon_electronic": [
            [
                2.98371992,
                0.0,
                -0.00289619
            ],
            [
                0.0,
                2.99141707,
                0.0
            ],
            [
                -0.00289635,
                0.0,
                2.9901391
            ]
        ],
        "epsilon_electronic_avg": 2.988425363333333,
        "epsilon_electronic_eig": [
            2.9826063343298936,
            2.9912526856701063,
            2.99141707
        ]
    },
    "phonon": {
        "lowest_freq": -0.0588662440890184,
        "frequency": [
            -0.0588662440890184,
            -0.054832373006434884,
            -0.03276331254642077,
            2.2684253420702434,
            2.818842213916187,
            2.8762388684479787,
            3.0203527285881853,
            3.7721357650535934,
            3.809181204345872,
            3.8379578552917892,
            4.304256761340845,
            4.363635467373018,
            4.477846590887305,
            5.208500869656405,
            5.238190269166838,
            5.377739000529891,
            5.493841545126936,
            5.749040033311833,
            6.090722300844677,
            6.144584462141172,
            6.290190825277516,
            6.321601739039653,
            6.676949975044521,
            6.745616104913393,
            6.775057550701932,
            7.535006470705798,
            7.613123892588453,
            7.719453583601601,
            8.011393901321036,
            8.018176057320272,
            8.249403398409484,
            8.847737077142266,
            8.97044988013491,
            9.315267651945321,
            9.42472093504957,
            10.217102308150494,
            10.401935180983104,
            10.561658333818604,
            11.242210412335899,
            11.254562982411501,
            12.049491218233591,
            12.097490440514765,
            12.885896918499832,
            12.90798529002016,
            13.4308070480181,
            14.246785182416813,
            14.78951661363196,
            14.88069339530933,
            16.19815638496571,
            17.263359268072914,
            17.755653631476882,
            17.880476653628364,
            18.597657288296563,
            18.60982012283522,
            18.778426470024748,
            19.640773086458175,
            19.696093182454273,
            20.065118573536857,
            23.14771725015207,
            23.331130215167626,
            23.39199668301886,
            23.617100597166257,
            24.442454599214447,
            24.56821502496797,
            25.51239602562024,
            26.157836789109325,
            26.32803823564122,
            27.42137179161734,
            28.13082504142499,
            28.170285767914145,
            29.431197171403753,
            29.465311891485005
        ]
    },
    "born_effective_charge": {
        "avg_abs_trace": 2.135095138888889,
        "tensors": [
            [
                [
                    2.49691,
                    0.03165,
                    0.01701
                ],
                [
                    0.03039,
                    2.48344,
                    -0.30544
                ],
                [
                    -0.02085,
                    -0.30955,
                    2.33367
                ]
            ],
            [
                [
                    2.49691,
                    -0.03161,
                    0.01712
                ],
                [
                    -0.03039,
                    2.48344,
                    0.30544
                ],
                [
                    -0.02082,
                    0.30953,
                    2.33364
                ]
            ],
            [
                [
                    2.6088,
                    0.03461,
                    0.00558
                ],
                [
                    -0.03179,
                    2.31292,
                    -0.21391
                ],
                [
                    0.03761,
                    -0.21462,
                    2.45083
                ]
            ],
            [
                [
                    2.60876,
                    -0.03459,
                    0.00573
                ],
                [
                    0.03179,
                    2.31292,
                    0.21391
                ],
                [
                    0.0376,
                    0.21458,
                    2.45079
                ]
            ],
            [
                [
                    2.07301,
                    0.03755,
                    -0.00068
                ],
                [
                    -0.04027,
                    2.90354,
                    -0.01149
                ],
                [
                    -0.0242,
                    -0.00436,
                    2.91011
                ]
            ],
            [
                [
                    2.07301,
                    -0.03758,
                    -0.00068
                ],
                [
                    0.04027,
                    2.90354,
                    0.01149
                ],
                [
                    -0.0242,
                    0.00437,
                    2.91011
                ]
            ],
            [
                [
                    2.44741,
                    0.02368,
                    -0.01133
                ],
                [
                    -0.01097,
                    2.37893,
                    0.01917
                ],
                [
                    -0.00627,
                    -0.0006,
                    2.36012
                ]
            ],
            [
                [
                    2.4474,
                    -0.02368,
                    -0.01134
                ],
                [
                    0.01097,
                    2.37893,
                    -0.01917
                ],
                [
                    -0.00626,
                    0.00061,
                    2.36011
                ]
            ],
            [
                [
                    2.89431,
                    0.04534,
                    -0.03075
                ],
                [
                    -0.00933,
                    2.88316,
                    -0.01649
                ],
                [
                    0.00223,
                    -0.00729,
                    2.89465
                ]
            ],
            [
                [
                    2.89419,
                    -0.04529,
                    -0.03072
                ],
                [
                    0.00933,
                    2.88316,
                    0.01649
                ],
                [
                    0.00222,
                    0.00729,
                    2.89467
                ]
            ],
            [
                [
                    -1.73527,
                    0.09882,
                    0.11012
                ],
                [
                    0.09367,
                    -1.93236,
                    -0.53403
                ],
                [
                    0.12923,
                    -0.53708,
                    -1.96111
                ]
            ],
            [
                [
                    -1.73523,
                    -0.09878,
                    0.11009
                ],
                [
                    -0.09367,
                    -1.93236,
                    0.53403
                ],
                [
                    0.1292,
                    0.53713,
                    -1.96109
                ]
            ],
            [
                [
                    -2.1008,
                    0.0032,
                    0.04307
                ],
                [
                    0.03282,
                    -1.8613,
                    0.11058
                ],
                [
                    0.01031,
                    0.07251,
                    -1.81254
                ]
            ],
            [
                [
                    -2.10078,
                    -0.00325,
                    0.04303
                ],
                [
                    -0.03282,
                    -1.8613,
                    -0.11058
                ],
                [
                    0.01031,
                    -0.07248,
                    -1.81257
                ]
            ],
            [
                [
                    -2.18052,
                    0.01438,
                    0.03039
                ],
                [
                    0.00676,
                    -1.55419,
                    0.10751
                ],
                [
                    0.03954,
                    0.14661,
                    -1.59049
                ]
            ],
            [
                [
                    -2.18013,
                    -0.01438,
                    0.03039
                ],
                [
                    -0.00676,
                    -1.55419,
                    -0.10751
                ],
                [
                    0.03949,
                    -0.14661,
                    -1.59048
                ]
            ],
            [
                [
                    -1.66267,
                    -0.14377,
                    -0.11289
                ],
                [
                    -0.13967,
                    -1.75844,
                    -0.16549
                ],
                [
                    -0.04723,
                    -0.21439,
                    -2.03471
                ]
            ],
            [
                [
                    -1.66273,
                    0.14377,
                    -0.11292
                ],
                [
                    0.13967,
                    -1.75844,
                    0.16549
                ],
                [
                    -0.04728,
                    0.21437,
                    -2.03474
                ]
            ],
            [
                [
                    -1.58746,
                    0.08491,
                    0.00414
                ],
                [
                    0.10627,
                    -1.59471,
                    -0.22998
                ],
                [
                    -0.07756,
                    -0.23716,
                    -2.21281
                ]
            ],
            [
                [
                    -1.58747,
                    -0.08495,
                    0.0042
                ],
                [
                    -0.10627,
                    -1.59471,
                    0.22998
                ],
                [
                    -0.07752,
                    0.23721,
                    -2.21281
                ]
            ],
            [
                [
                    -1.53649,
                    -0.01075,
                    -0.15397
                ],
                [
                    -0.08057,
                    -2.22587,
                    0.28506
                ],
                [
                    -0.15756,
                    0.23501,
                    -1.59851
                ]
            ],
            [
                [
                    -1.53664,
                    0.01078,
                    -0.15396
                ],
                [
                    0.08057,
                    -2.22587,
                    -0.28506
                ],
                [
                    -0.15755,
                    -0.23507,
                    -1.59848
                ]
            ],
            [
                [
                    -1.71712,
                    -0.13333,
                    0.0992
                ],
                [
                    -0.06211,
                    -2.03514,
                    0.15243
                ],
                [
                    0.11474,
                    0.13328,
                    -1.73919
                ]
            ],
            [
                [
                    -1.71741,
                    0.13326,
                    0.09917
                ],
                [
                    0.06211,
                    -2.03514,
                    -0.15243
                ],
                [
                    0.11482,
                    -0.13329,
                    -1.73919
                ]
            ]
        ]
    },
    "band_gap": 4.2138,
    "is_direct": false,
    "formula": "Sr2Al2SiO7"
}