{
    "mp_id": "mp-17458",
    "nelements": 3,
    "nsites": 22,
    "elements": [
        "O",
        "V",
        "Zn"
    ],
    "structure": {
        "@module": "pymatgen.core.structure",
        "@class": "Structure",
        "charge": null,
        "lattice": {
            "matrix": [
                [
                    3.7563518,
                    -4.06811811,
                    -0.00037708
                ],
                [
                    3.7563518,
                    4.06811811,
                    -0.00037708
                ],
                [
                    -3.58380395,
                    0.0,
                    9.38015016
                ]
            ],
            "a": 5.537125964294342,
            "b": 5.537125964294342,
            "c": 10.04145745278959,
            "alpha": 104.015411629904,
            "beta": 104.015411629904,
            "gamma": 94.56349085026386,
            "volume": 286.6704591701714
        },
        "sites": [
            {
                "species": [
                    {
                        "element": "V",
                        "occu": 1
                    }
                ],
                "abc": [
                    0.00263359,
                    0.51424781,
                    0.70718773
                ],
                "xyz": [
                    -0.5928338028890139,
                    2.081307073715524,
                    6.633332193071224
                ],
                "label": "V",
                "properties": {}
            },
            {
                "species": [
                    {
                        "element": "V",
                        "occu": 1
                    }
                ],
                "abc": [
                    0.48575219,
                    0.99736641,
                    0.79281227
                ],
                "xyz": [
                    2.729831477889013,
                    2.081307073715524,
                    7.436138886928775
                ],
                "label": "V",
                "properties": {}
            },
            {
                "species": [
                    {
                        "element": "V",
                        "occu": 1
                    }
                ],
                "abc": [
                    0.99736641,
                    0.48575219,
                    0.29281227
                ],
                "xyz": [
                    4.521733452889013,
                    -2.081307073715524,
                    2.746063806928775
                ],
                "label": "V",
                "properties": {}
            },
            {
                "species": [
                    {
                        "element": "V",
                        "occu": 1
                    }
                ],
                "abc": [
                    0.51424781,
                    0.00263359,
                    0.20718773
                ],
                "xyz": [
                    1.1990681721109864,
                    -2.081307073715524,
                    1.9432571130712246
                ],
                "label": "V",
                "properties": {}
            },
            {
                "species": [
                    {
                        "element": "Zn",
                        "occu": 1
                    }
                ],
                "abc": [
                    0.25250031,
                    0.40714703,
                    0.02221458
                ],
                "xyz": [
                    2.398254773422621,
                    0.6291211222840993,
                    0.2081273563223656
                ],
                "label": "Zn",
                "properties": {}
            },
            {
                "species": [
                    {
                        "element": "Zn",
                        "occu": 1
                    }
                ],
                "abc": [
                    0.59285297,
                    0.74749969,
                    0.47778542
                ],
                "xyz": [
                    3.3225468515773784,
                    0.6291211222840993,
                    4.4811935636776346
                ],
                "label": "Zn",
                "properties": {}
            },
            {
                "species": [
                    {
                        "element": "Zn",
                        "occu": 1
                    }
                ],
                "abc": [
                    0.74749969,
                    0.59285297,
                    0.97778542
                ],
                "xyz": [
                    1.5306448765773784,
                    -0.6291211222840993,
                    9.171268643677633
                ],
                "label": "Zn",
                "properties": {}
            },
            {
                "species": [
                    {
                        "element": "Zn",
                        "occu": 1
                    }
                ],
                "abc": [
                    0.40714703,
                    0.25250031,
                    0.52221458
                ],
                "xyz": [
                    0.6063527984226211,
                    -0.6291211222840993,
                    4.898202436322365
                ],
                "label": "Zn",
                "properties": {}
            },
            {
                "species": [
                    {
                        "element": "O",
                        "occu": 1
                    }
                ],
                "abc": [
                    0.14738,
                    0.30481822,
                    0.61683379
                ],
                "xyz": [
                    -0.5119957754416746,
                    0.6404772739881641,
                    5.785823059057109
                ],
                "label": "O",
                "properties": {}
            },
            {
                "species": [
                    {
                        "element": "O",
                        "occu": 1
                    }
                ],
                "abc": [
                    0.69518178,
                    0.85262,
                    0.88316621
                ],
                "xyz": [
                    2.6489934504416746,
                    0.6404772739881643,
                    8.28364802094289
                ],
                "label": "O",
                "properties": {}
            },
            {
                "species": [
                    {
                        "element": "O",
                        "occu": 1
                    }
                ],
                "abc": [
                    0.85262,
                    0.69518178,
                    0.38316621
                ],
                "xyz": [
                    4.440895425441674,
                    -0.6404772739881643,
                    3.593572940942891
                ],
                "label": "O",
                "properties": {}
            },
            {
                "species": [
                    {
                        "element": "O",
                        "occu": 1
                    }
                ],
                "abc": [
                    0.30481822,
                    0.14738,
                    0.11683379
                ],
                "xyz": [
                    1.2799061995583254,
                    -0.6404772739881641,
                    1.0957479790571087
                ],
                "label": "O",
                "properties": {}
            },
            {
                "species": [
                    {
                        "element": "O",
                        "occu": 1
                    }
                ],
                "abc": [
                    0.70444859,
                    0.51286892,
                    0.60190954
                ],
                "xyz": [
                    2.415547032865335,
                    -0.779368725034824,
                    5.6455428418498546
                ],
                "label": "O",
                "properties": {}
            },
            {
                "species": [
                    {
                        "element": "O",
                        "occu": 1
                    }
                ],
                "abc": [
                    0.48713108,
                    0.29555141,
                    0.89809046
                ],
                "xyz": [
                    -0.2785493578653351,
                    -0.7793687250348238,
                    8.423928238150143
                ],
                "label": "O",
                "properties": {}
            },
            {
                "species": [
                    {
                        "element": "O",
                        "occu": 1
                    }
                ],
                "abc": [
                    0.29555141,
                    0.48713108,
                    0.39809046
                ],
                "xyz": [
                    1.5133526171346652,
                    0.7793687250348238,
                    3.733853158150144
                ],
                "label": "O",
                "properties": {}
            },
            {
                "species": [
                    {
                        "element": "O",
                        "occu": 1
                    }
                ],
                "abc": [
                    0.51286892,
                    0.70444859,
                    0.10190954
                ],
                "xyz": [
                    4.207449007865335,
                    0.779368725034824,
                    0.9554677618498556
                ],
                "label": "O",
                "properties": {}
            },
            {
                "species": [
                    {
                        "element": "O",
                        "occu": 1
                    }
                ],
                "abc": [
                    0.81906288,
                    0.18093712,
                    0.25
                ],
                "xyz": [
                    2.8604008125000004,
                    -2.595970960713514,
                    2.34466046
                ],
                "label": "O",
                "properties": {}
            },
            {
                "species": [
                    {
                        "element": "O",
                        "occu": 1
                    }
                ],
                "abc": [
                    0.18093712,
                    0.81906288,
                    0.75
                ],
                "xyz": [
                    1.0684988375000004,
                    2.595970960713514,
                    7.03473554
                ],
                "label": "O",
                "properties": {}
            },
            {
                "species": [
                    {
                        "element": "O",
                        "occu": 1
                    }
                ],
                "abc": [
                    0.44299504,
                    0.98641383,
                    0.36427627
                ],
                "xyz": [
                    4.0638678464432,
                    2.210691820913287,
                    3.4164271108280038
                ],
                "label": "O",
                "properties": {}
            },
            {
                "species": [
                    {
                        "element": "O",
                        "occu": 1
                    }
                ],
                "abc": [
                    0.01358617,
                    0.55700496,
                    0.13572373
                ],
                "xyz": [
                    1.6569337785568008,
                    2.2106918209132873,
                    1.2728938091719963
                ],
                "label": "O",
                "properties": {}
            },
            {
                "species": [
                    {
                        "element": "O",
                        "occu": 1
                    }
                ],
                "abc": [
                    0.55700496,
                    0.01358617,
                    0.63572373
                ],
                "xyz": [
                    -0.13496819644319924,
                    -2.2106918209132873,
                    5.9629688891719965
                ],
                "label": "O",
                "properties": {}
            },
            {
                "species": [
                    {
                        "element": "O",
                        "occu": 1
                    }
                ],
                "abc": [
                    0.98641383,
                    0.44299504,
                    0.86427627
                ],
                "xyz": [
                    2.2719658714431996,
                    -2.210691820913287,
                    8.106502190828003
                ],
                "label": "O",
                "properties": {}
            }
        ]
    },
    "spacegroup": {
        "source": "spglib",
        "symbol": "C2/c",
        "number": 15,
        "point_group": "2/m",
        "crystal_system": "monoclinic",
        "hall": "-C 2yc"
    },
    "dielectric": {
        "epsilon_ionic": [
            [
                4.83144499,
                8e-08,
                -0.10612801
            ],
            [
                8e-08,
                4.71627709,
                4e-08
            ],
            [
                -0.10612801,
                4e-08,
                6.31639954
            ]
        ],
        "epsilon_ionic_avg": 5.288040540000002,
        "epsilon_ionic_eig": [
            6.323946036888589,
            4.823898493111478,
            4.716277089999937
        ],
        "epsilon_electronic": [
            [
                4.39873048,
                0.0,
                -0.07458196
            ],
            [
                0.0,
                4.28516067,
                0.0
            ],
            [
                -0.0745821,
                0.0,
                4.47030756
            ]
        ],
        "epsilon_electronic_avg": 4.384732903333333,
        "epsilon_electronic_eig": [
            4.3517947865841045,
            4.517243253415896,
            4.28516067
        ]
    },
    "phonon": {
        "lowest_freq": -0.07261430926783358,
        "frequency": [
            -0.07261430926783358,
            -0.059639627412583815,
            -0.05010523580714431,
            2.11067164310963,
            2.186692882062136,
            2.4223797867313897,
            2.794011331260174,
            2.8863283897013203,
            2.9392920815585653,
            3.068555307645071,
            3.40225904261167,
            3.687948683107466,
            3.848902890450398,
            3.849412931773991,
            4.415278824544533,
            4.629221445538797,
            4.823793141830575,
            5.086715700586506,
            5.3374397676805465,
            5.356296363575417,
            5.675384154198605,
            5.959734003124994,
            6.309194851291318,
            6.573407869186792,
            7.140369302837003,
            7.316636650375182,
            7.365177391837954,
            7.42065168930004,
            7.5607045291152035,
            8.16345111738235,
            8.637777248208295,
            8.650103932338503,
            8.794848466351151,
            8.796146603619036,
            9.094802165435844,
            9.873235078630573,
            10.171421683598924,
            10.293488637410718,
            10.395970277115243,
            10.416702446373952,
            10.717367764821317,
            10.732087828517571,
            11.0302749836137,
            11.048041914107197,
            11.071416773272558,
            12.000577705515177,
            12.742265038115438,
            13.178177069682159,
            13.218943070493914,
            13.7744956498822,
            15.346392770576287,
            15.52275096232157,
            20.26023519915537,
            21.8165393384574,
            22.06432084658875,
            23.004807922394605,
            24.16106578105143,
            24.408974661938714,
            24.807890183664817,
            25.513150939717285,
            25.56396659457419,
            26.66563106385574,
            26.879968105583405,
            27.17935563725344,
            27.597999280306677,
            28.822615518825717
        ]
    },
    "born_effective_charge": {
        "avg_abs_trace": 2.4774695454545452,
        "tensors": [
            [
                [
                    4.87624,
                    -0.01251,
                    0.16951
                ],
                [
                    -0.52468,
                    3.74032,
                    -0.03054
                ],
                [
                    0.11282,
                    -0.19932,
                    3.93263
                ]
            ],
            [
                [
                    4.87614,
                    0.01248,
                    0.16942
                ],
                [
                    0.52468,
                    3.74032,
                    0.03054
                ],
                [
                    0.11258,
                    0.19931,
                    3.93282
                ]
            ],
            [
                [
                    4.87614,
                    -0.01248,
                    0.16942
                ],
                [
                    -0.52449,
                    3.74022,
                    -0.03088
                ],
                [
                    0.11258,
                    -0.19931,
                    3.93282
                ]
            ],
            [
                [
                    4.87624,
                    0.01251,
                    0.16951
                ],
                [
                    0.52449,
                    3.74022,
                    0.03088
                ],
                [
                    0.11282,
                    0.19932,
                    3.93263
                ]
            ],
            [
                [
                    2.14755,
                    0.04594,
                    -0.2239
                ],
                [
                    0.38095,
                    2.74932,
                    0.04634
                ],
                [
                    -0.20101,
                    0.09942,
                    2.99322
                ]
            ],
            [
                [
                    2.14761,
                    -0.04596,
                    -0.22385
                ],
                [
                    -0.38095,
                    2.74932,
                    -0.04634
                ],
                [
                    -0.20079,
                    -0.09942,
                    2.99311
                ]
            ],
            [
                [
                    2.14761,
                    0.04596,
                    -0.22385
                ],
                [
                    0.38077,
                    2.74906,
                    0.04614
                ],
                [
                    -0.20079,
                    0.09942,
                    2.99311
                ]
            ],
            [
                [
                    2.14755,
                    -0.04594,
                    -0.2239
                ],
                [
                    -0.38077,
                    2.74906,
                    -0.04614
                ],
                [
                    -0.20101,
                    -0.09942,
                    2.99322
                ]
            ],
            [
                [
                    -0.82567,
                    0.21254,
                    0.24426
                ],
                [
                    0.38077,
                    -2.60847,
                    -1.06851
                ],
                [
                    0.28745,
                    -1.06284,
                    -1.3389
                ]
            ],
            [
                [
                    -0.82555,
                    -0.21278,
                    0.24435
                ],
                [
                    -0.38077,
                    -2.60847,
                    1.06851
                ],
                [
                    0.28733,
                    1.06279,
                    -1.33903
                ]
            ],
            [
                [
                    -0.82555,
                    0.21278,
                    0.24435
                ],
                [
                    0.38099,
                    -2.60819,
                    -1.06856
                ],
                [
                    0.28733,
                    -1.06279,
                    -1.33903
                ]
            ],
            [
                [
                    -0.82567,
                    -0.21254,
                    0.24426
                ],
                [
                    -0.38099,
                    -2.60819,
                    1.06856
                ],
                [
                    0.28745,
                    1.06284,
                    -1.3389
                ]
            ],
            [
                [
                    -1.76957,
                    1.02672,
                    -1.00419
                ],
                [
                    0.95959,
                    -2.38068,
                    1.26681
                ],
                [
                    -0.6923,
                    1.40345,
                    -2.04434
                ]
            ],
            [
                [
                    -1.76945,
                    -1.02649,
                    -1.00409
                ],
                [
                    -0.95959,
                    -2.38068,
                    -1.26681
                ],
                [
                    -0.69244,
                    -1.40359,
                    -2.04442
                ]
            ],
            [
                [
                    -1.76945,
                    1.02649,
                    -1.00409
                ],
                [
                    0.95954,
                    -2.3807,
                    1.2672
                ],
                [
                    -0.69244,
                    1.40359,
                    -2.04442
                ]
            ],
            [
                [
                    -1.76957,
                    -1.02672,
                    -1.00419
                ],
                [
                    -0.95954,
                    -2.3807,
                    -1.2672
                ],
                [
                    -0.6923,
                    -1.40345,
                    -2.04434
                ]
            ],
            [
                [
                    -5.5715,
                    0.00021,
                    -1.29094
                ],
                [
                    -0.0,
                    -0.54016,
                    0.0
                ],
                [
                    -1.19101,
                    1e-05,
                    -0.70189
                ]
            ],
            [
                [
                    -5.5715,
                    -0.00021,
                    -1.29094
                ],
                [
                    -0.0,
                    -0.54023,
                    0.0
                ],
                [
                    -1.19101,
                    -1e-05,
                    -0.70189
                ]
            ],
            [
                [
                    -1.64288,
                    0.00401,
                    1.45975
                ],
                [
                    -0.03238,
                    -1.2303,
                    -0.27067
                ],
                [
                    1.08856,
                    -0.3073,
                    -3.19143
                ]
            ],
            [
                [
                    -1.64293,
                    -0.00408,
                    1.45969
                ],
                [
                    0.03238,
                    -1.2303,
                    0.27067
                ],
                [
                    1.08881,
                    0.30715,
                    -3.19177
                ]
            ],
            [
                [
                    -1.64293,
                    0.00408,
                    1.45969
                ],
                [
                    -0.03245,
                    -1.23039,
                    -0.2705
                ],
                [
                    1.08881,
                    -0.30715,
                    -3.19177
                ]
            ],
            [
                [
                    -1.64288,
                    -0.00401,
                    1.45975
                ],
                [
                    0.03245,
                    -1.23039,
                    0.2705
                ],
                [
                    1.08856,
                    0.3073,
                    -3.19143
                ]
            ]
        ]
    },
    "band_gap": 2.7088,
    "is_direct": false,
    "formula": "V2Zn2O7"
}