{
    "mp_id": "mp-1210368",
    "nelements": 3,
    "nsites": 24,
    "elements": [
        "Na",
        "O",
        "Pb"
    ],
    "structure": {
        "@module": "pymatgen.core.structure",
        "@class": "Structure",
        "charge": null,
        "lattice": {
            "matrix": [
                [
                    2.85994631,
                    -4.95765567,
                    0.00018473
                ],
                [
                    2.85994631,
                    4.95765567,
                    0.00018473
                ],
                [
                    -1.92761333,
                    0.0,
                    10.9274352
                ]
            ],
            "a": 5.723429275573425,
            "b": 5.723429275573425,
            "c": 11.096149476290986,
            "alpha": 94.97805044914715,
            "beta": 94.97805044914715,
            "gamma": 120.04087730647241,
            "volume": 309.8756308350885
        },
        "sites": [
            {
                "species": [
                    {
                        "element": "Na",
                        "occu": 1
                    }
                ],
                "abc": [
                    0.18038755,
                    0.33993028,
                    0.00012715
                ],
                "xyz": [
                    1.487835961900798,
                    0.790957919991779,
                    0.0014855416984159
                ],
                "label": "Na",
                "properties": {}
            },
            {
                "species": [
                    {
                        "element": "Na",
                        "occu": 1
                    }
                ],
                "abc": [
                    0.81961245,
                    0.66006972,
                    0.99987285
                ],
                "xyz": [
                    2.304443328099203,
                    -0.7909579199917789,
                    10.926319118301583
                ],
                "label": "Na",
                "properties": {}
            },
            {
                "species": [
                    {
                        "element": "Na",
                        "occu": 1
                    }
                ],
                "abc": [
                    0.66006972,
                    0.81961245,
                    0.49987285
                ],
                "xyz": [
                    3.268249993099203,
                    0.7909579199917789,
                    5.462601518301584
                ],
                "label": "Na",
                "properties": {}
            },
            {
                "species": [
                    {
                        "element": "Na",
                        "occu": 1
                    }
                ],
                "abc": [
                    0.33993028,
                    0.18038755,
                    0.50012715
                ],
                "xyz": [
                    0.5240292969007979,
                    -0.790957919991779,
                    5.4652031416984155
                ],
                "label": "Na",
                "properties": {}
            },
            {
                "species": [
                    {
                        "element": "Na",
                        "occu": 1
                    }
                ],
                "abc": [
                    0.58446846,
                    0.41553154,
                    0.25
                ],
                "xyz": [
                    2.3780429775,
                    -0.8375310793103363,
                    2.73204353
                ],
                "label": "Na",
                "properties": {}
            },
            {
                "species": [
                    {
                        "element": "Na",
                        "occu": 1
                    }
                ],
                "abc": [
                    0.41553154,
                    0.58446846,
                    0.75
                ],
                "xyz": [
                    1.4142363124999997,
                    0.8375310793103363,
                    8.195761130000001
                ],
                "label": "Na",
                "properties": {}
            },
            {
                "species": [
                    {
                        "element": "Na",
                        "occu": 1
                    }
                ],
                "abc": [
                    0.0,
                    0.5,
                    0.5
                ],
                "xyz": [
                    0.4661664900000001,
                    2.478827835,
                    5.463809965
                ],
                "label": "Na",
                "properties": {}
            },
            {
                "species": [
                    {
                        "element": "Na",
                        "occu": 1
                    }
                ],
                "abc": [
                    0.5,
                    0.0,
                    0.0
                ],
                "xyz": [
                    1.429973155,
                    -2.478827835,
                    9.2365e-05
                ],
                "label": "Na",
                "properties": {}
            },
            {
                "species": [
                    {
                        "element": "Pb",
                        "occu": 1
                    }
                ],
                "abc": [
                    0.25057974,
                    0.74942026,
                    0.25
                ],
                "xyz": [
                    2.3780429775000003,
                    2.473079532403748,
                    2.73204353
                ],
                "label": "Pb",
                "properties": {}
            },
            {
                "species": [
                    {
                        "element": "Pb",
                        "occu": 1
                    }
                ],
                "abc": [
                    0.74942026,
                    0.25057974,
                    0.75
                ],
                "xyz": [
                    1.4142363125000001,
                    -2.473079532403748,
                    8.195761130000001
                ],
                "label": "Pb",
                "properties": {}
            },
            {
                "species": [
                    {
                        "element": "Pb",
                        "occu": 1
                    }
                ],
                "abc": [
                    0.91776985,
                    0.08223015,
                    0.25
                ],
                "xyz": [
                    2.3780429775000003,
                    -4.1423181312151,
                    2.73204353
                ],
                "label": "Pb",
                "properties": {}
            },
            {
                "species": [
                    {
                        "element": "Pb",
                        "occu": 1
                    }
                ],
                "abc": [
                    0.08223015,
                    0.91776985,
                    0.75
                ],
                "xyz": [
                    1.4142363125000001,
                    4.1423181312151,
                    8.195761130000001
                ],
                "label": "Pb",
                "properties": {}
            },
            {
                "species": [
                    {
                        "element": "O",
                        "occu": 1
                    }
                ],
                "abc": [
                    0.02028847,
                    0.18828253,
                    0.63677122
                ],
                "xyz": [
                    -0.6309468300093526,
                    0.8328567040853203,
                    6.958314773095774
                ],
                "label": "O",
                "properties": {}
            },
            {
                "species": [
                    {
                        "element": "O",
                        "occu": 1
                    }
                ],
                "abc": [
                    0.97971153,
                    0.81171747,
                    0.36322878
                ],
                "xyz": [
                    4.423226120009353,
                    -0.8328567040853203,
                    3.969489886904226
                ],
                "label": "O",
                "properties": {}
            },
            {
                "species": [
                    {
                        "element": "O",
                        "occu": 1
                    }
                ],
                "abc": [
                    0.81171747,
                    0.97971153,
                    0.86322878
                ],
                "xyz": [
                    3.4594194550093524,
                    0.8328567040853203,
                    9.433207486904225
                ],
                "label": "O",
                "properties": {}
            },
            {
                "species": [
                    {
                        "element": "O",
                        "occu": 1
                    }
                ],
                "abc": [
                    0.18828253,
                    0.02028847,
                    0.13677122
                ],
                "xyz": [
                    0.3328598349906474,
                    -0.8328567040853203,
                    1.494597173095774
                ],
                "label": "O",
                "properties": {}
            },
            {
                "species": [
                    {
                        "element": "O",
                        "occu": 1
                    }
                ],
                "abc": [
                    0.26606731,
                    0.45490731,
                    0.36426729
                ],
                "xyz": [
                    1.3597822201856764,
                    0.9362036967228002,
                    3.9806403925961606
                ],
                "label": "O",
                "properties": {}
            },
            {
                "species": [
                    {
                        "element": "O",
                        "occu": 1
                    }
                ],
                "abc": [
                    0.73393269,
                    0.54509269,
                    0.63573271
                ],
                "xyz": [
                    2.432497069814324,
                    -0.9362036967227998,
                    6.9471642674038385
                ],
                "label": "O",
                "properties": {}
            },
            {
                "species": [
                    {
                        "element": "O",
                        "occu": 1
                    }
                ],
                "abc": [
                    0.54509269,
                    0.73393269,
                    0.13573271
                ],
                "xyz": [
                    3.3963037348143237,
                    0.9362036967227998,
                    1.4834466674038393
                ],
                "label": "O",
                "properties": {}
            },
            {
                "species": [
                    {
                        "element": "O",
                        "occu": 1
                    }
                ],
                "abc": [
                    0.45490731,
                    0.26606731,
                    0.86426729
                ],
                "xyz": [
                    0.3959755551856765,
                    -0.9362036967228002,
                    9.44435799259616
                ],
                "label": "O",
                "properties": {}
            },
            {
                "species": [
                    {
                        "element": "O",
                        "occu": 1
                    }
                ],
                "abc": [
                    0.90443961,
                    0.37759473,
                    0.13713558
                ],
                "xyz": [
                    3.4022050079510042,
                    -2.61191550654247,
                    1.4987769942680442
                ],
                "label": "O",
                "properties": {}
            },
            {
                "species": [
                    {
                        "element": "O",
                        "occu": 1
                    }
                ],
                "abc": [
                    0.09556039,
                    0.62240527,
                    0.86286442
                ],
                "xyz": [
                    0.3900742820489964,
                    2.61191550654247,
                    9.429027665731956
                ],
                "label": "O",
                "properties": {}
            },
            {
                "species": [
                    {
                        "element": "O",
                        "occu": 1
                    }
                ],
                "abc": [
                    0.62240527,
                    0.09556039,
                    0.36286442
                ],
                "xyz": [
                    1.3538809470489963,
                    -2.61191550654247,
                    3.965310065731956
                ],
                "label": "O",
                "properties": {}
            },
            {
                "species": [
                    {
                        "element": "O",
                        "occu": 1
                    }
                ],
                "abc": [
                    0.37759473,
                    0.90443961,
                    0.63713558
                ],
                "xyz": [
                    2.4383983429510043,
                    2.61191550654247,
                    6.962494594268045
                ],
                "label": "O",
                "properties": {}
            }
        ]
    },
    "spacegroup": {
        "source": "spglib",
        "symbol": "C2/c",
        "number": 15,
        "point_group": "2/m",
        "crystal_system": "monoclinic",
        "hall": "-C 2yc"
    },
    "dielectric": {
        "epsilon_ionic": [
            [
                7.29467242,
                -0.0,
                -0.16488753
            ],
            [
                -0.0,
                7.52762792,
                1e-08
            ],
            [
                -0.16488753,
                1e-08,
                4.47980045
            ]
        ],
        "epsilon_ionic_avg": 6.434033596666667,
        "epsilon_ionic_eig": [
            4.470174704014923,
            7.304298165985077,
            7.52762792
        ],
        "epsilon_electronic": [
            [
                4.57098895,
                0.0,
                -0.00581312
            ],
            [
                0.0,
                4.58573202,
                0.0
            ],
            [
                -0.00581614,
                0.0,
                3.54968432
            ]
        ],
        "epsilon_electronic_avg": 4.23546843,
        "epsilon_electronic_eig": [
            4.571022053564713,
            3.549651216435287,
            4.58573202
        ]
    },
    "phonon": {
        "lowest_freq": -0.04456388961878515,
        "frequency": [
            -0.04456388961878515,
            -0.02264287503799128,
            -0.018604724335778467,
            1.5087027518097502,
            1.5394851792838382,
            2.737975929126922,
            2.8277303176829878,
            2.8382319713617483,
            3.297190842629474,
            3.404187328701311,
            3.9061032947391814,
            4.078742588112535,
            4.272655970133965,
            4.87131118795581,
            4.894104585531137,
            4.89470671926791,
            4.926561756917436,
            4.9429625217559385,
            4.947965817373337,
            5.164796461335463,
            5.468462671405756,
            5.621417246415255,
            5.708527272582327,
            5.764235825319879,
            6.371604063022583,
            6.479453114454704,
            6.486725077658204,
            6.49777288010734,
            6.5127180135499545,
            6.562923021598143,
            6.900465833924297,
            6.911408006623969,
            6.923031836594361,
            6.923865189524146,
            7.357641000128723,
            7.500121090297905,
            7.951061602821006,
            8.005074078039089,
            8.172152547666183,
            8.189059213210786,
            8.676811241135711,
            8.679359801326646,
            8.742246056799107,
            8.785962818500625,
            9.065630973514404,
            9.321159716002416,
            9.655111317377706,
            10.339894105869195,
            10.753761003826593,
            10.86379885804986,
            10.95346329012453,
            10.954104669048103,
            11.68939253114215,
            11.737691611538269,
            11.748308375730451,
            11.778113271773261,
            12.2916229188494,
            12.358634652559708,
            12.403792941095219,
            12.523755333077927,
            12.598848547453068,
            13.116544466467992,
            13.11949633217973,
            13.866867623426096,
            13.86728957124339,
            13.886418666114116,
            13.90241236811792,
            14.672052819233024,
            14.845509471526768,
            14.860805988005522,
            14.860926577473832,
            15.427371206555087
        ]
    },
    "born_effective_charge": {
        "avg_abs_trace": 1.9334751388888891,
        "tensors": [
            [
                [
                    0.9413,
                    0.0828,
                    -0.02088
                ],
                [
                    0.08249,
                    1.03705,
                    -0.03162
                ],
                [
                    -0.00672,
                    -0.01084,
                    1.42297
                ]
            ],
            [
                [
                    0.9413,
                    0.0828,
                    -0.02087
                ],
                [
                    0.08246,
                    1.03704,
                    -0.03162
                ],
                [
                    -0.00673,
                    -0.01084,
                    1.42297
                ]
            ],
            [
                [
                    0.9413,
                    -0.0828,
                    -0.02087
                ],
                [
                    -0.08249,
                    1.03705,
                    0.03162
                ],
                [
                    -0.00673,
                    0.01084,
                    1.42297
                ]
            ],
            [
                [
                    0.9413,
                    -0.0828,
                    -0.02088
                ],
                [
                    -0.08246,
                    1.03704,
                    0.03162
                ],
                [
                    -0.00672,
                    0.01084,
                    1.42297
                ]
            ],
            [
                [
                    1.07802,
                    1e-05,
                    0.00695
                ],
                [
                    -0.0,
                    1.07734,
                    0.0
                ],
                [
                    -0.00198,
                    1e-05,
                    0.53594
                ]
            ],
            [
                [
                    1.07802,
                    -1e-05,
                    0.00695
                ],
                [
                    -0.0,
                    1.07735,
                    0.0
                ],
                [
                    -0.00198,
                    -1e-05,
                    0.53594
                ]
            ],
            [
                [
                    1.07912,
                    0.15957,
                    0.04214
                ],
                [
                    0.15922,
                    0.8961,
                    -0.07538
                ],
                [
                    0.01213,
                    -0.0214,
                    1.42359
                ]
            ],
            [
                [
                    1.07912,
                    -0.15957,
                    0.04214
                ],
                [
                    -0.15922,
                    0.8961,
                    0.07538
                ],
                [
                    0.01213,
                    0.0214,
                    1.42359
                ]
            ],
            [
                [
                    4.35362,
                    -0.0,
                    0.01936
                ],
                [
                    -0.0,
                    4.37404,
                    0.0
                ],
                [
                    -0.0129,
                    -1e-05,
                    2.22661
                ]
            ],
            [
                [
                    4.35362,
                    0.0,
                    0.01936
                ],
                [
                    -0.0,
                    4.37409,
                    0.0
                ],
                [
                    -0.0129,
                    1e-05,
                    2.22661
                ]
            ],
            [
                [
                    4.36012,
                    -1e-05,
                    -0.02633
                ],
                [
                    -0.0,
                    4.3673,
                    0.0
                ],
                [
                    0.01742,
                    5e-05,
                    2.22816
                ]
            ],
            [
                [
                    4.36012,
                    1e-05,
                    -0.02633
                ],
                [
                    -0.0,
                    4.36717,
                    0.0
                ],
                [
                    0.01742,
                    -5e-05,
                    2.22816
                ]
            ],
            [
                [
                    -1.58259,
                    0.03052,
                    0.13456
                ],
                [
                    -0.01126,
                    -2.65937,
                    -0.00654
                ],
                [
                    0.27402,
                    -0.0002,
                    -1.53504
                ]
            ],
            [
                [
                    -1.58264,
                    0.03056,
                    0.13458
                ],
                [
                    -0.01096,
                    -2.65935,
                    -0.00648
                ],
                [
                    0.27418,
                    -0.00016,
                    -1.53494
                ]
            ],
            [
                [
                    -1.58264,
                    -0.03056,
                    0.13458
                ],
                [
                    0.01126,
                    -2.65937,
                    0.00654
                ],
                [
                    0.27418,
                    0.00016,
                    -1.53494
                ]
            ],
            [
                [
                    -1.58259,
                    -0.03052,
                    0.13456
                ],
                [
                    0.01096,
                    -2.65935,
                    0.00648
                ],
                [
                    0.27402,
                    0.0002,
                    -1.53504
                ]
            ],
            [
                [
                    -2.3976,
                    -0.45918,
                    -0.07676
                ],
                [
                    -0.45692,
                    -1.86949,
                    0.12727
                ],
                [
                    -0.13859,
                    0.23703,
                    -1.57064
                ]
            ],
            [
                [
                    -2.39759,
                    -0.4592,
                    -0.07675
                ],
                [
                    -0.45685,
                    -1.8696,
                    0.12729
                ],
                [
                    -0.13856,
                    0.23691,
                    -1.57066
                ]
            ],
            [
                [
                    -2.39759,
                    0.4592,
                    -0.07675
                ],
                [
                    0.45692,
                    -1.86949,
                    -0.12727
                ],
                [
                    -0.13856,
                    -0.23691,
                    -1.57066
                ]
            ],
            [
                [
                    -2.3976,
                    0.45918,
                    -0.07676
                ],
                [
                    0.45685,
                    -1.8696,
                    -0.12729
                ],
                [
                    -0.13859,
                    -0.23703,
                    -1.57064
                ]
            ],
            [
                [
                    -2.39651,
                    -0.4604,
                    -0.05799
                ],
                [
                    -0.49982,
                    -1.86556,
                    0.10876
                ],
                [
                    -0.13613,
                    0.23199,
                    -1.52451
                ]
            ],
            [
                [
                    -2.39654,
                    -0.46041,
                    -0.05801
                ],
                [
                    -0.49988,
                    -1.86547,
                    0.10886
                ],
                [
                    -0.13614,
                    0.23208,
                    -1.52445
                ]
            ],
            [
                [
                    -2.39654,
                    0.46041,
                    -0.05801
                ],
                [
                    0.49982,
                    -1.86556,
                    -0.10876
                ],
                [
                    -0.13614,
                    -0.23208,
                    -1.52445
                ]
            ],
            [
                [
                    -2.39651,
                    0.4604,
                    -0.05799
                ],
                [
                    0.49988,
                    -1.86547,
                    -0.10886
                ],
                [
                    -0.13613,
                    -0.23199,
                    -1.52451
                ]
            ]
        ]
    },
    "band_gap": 1.3858,
    "is_direct": true,
    "formula": "Na2PbO3"
}