{
    "mp_id": "mp-13252",
    "nelements": 3,
    "nsites": 24,
    "elements": [
        "B",
        "O",
        "Sn"
    ],
    "structure": {
        "@module": "pymatgen.core.structure",
        "@class": "Structure",
        "charge": null,
        "lattice": {
            "matrix": [
                [
                    10.85722638,
                    0.0,
                    0.0
                ],
                [
                    0.0,
                    4.44331554,
                    0.0
                ],
                [
                    0.0,
                    0.0,
                    4.22993872
                ]
            ],
            "a": 10.85722638,
            "b": 4.44331554,
            "c": 4.22993872,
            "alpha": 90.0,
            "beta": 90.0,
            "gamma": 90.0,
            "volume": 204.06105352735716
        },
        "sites": [
            {
                "species": [
                    {
                        "element": "Sn",
                        "occu": 1
                    }
                ],
                "abc": [
                    0.5,
                    0.83207517,
                    0.59779296
                ],
                "xyz": [
                    5.42861319,
                    3.697172533309142,
                    2.5286275880474114
                ],
                "label": "Sn",
                "properties": {}
            },
            {
                "species": [
                    {
                        "element": "Sn",
                        "occu": 1
                    }
                ],
                "abc": [
                    0.0,
                    0.16792483,
                    0.09779296
                ],
                "xyz": [
                    0.0,
                    0.7461430066908582,
                    0.41365822804741115
                ],
                "label": "Sn",
                "properties": {}
            },
            {
                "species": [
                    {
                        "element": "B",
                        "occu": 1
                    }
                ],
                "abc": [
                    0.12224489,
                    0.67252519,
                    0.55556001
                ],
                "xyz": [
                    1.3272404445281982,
                    2.9882416277684527,
                    2.349984797582587
                ],
                "label": "B",
                "properties": {}
            },
            {
                "species": [
                    {
                        "element": "B",
                        "occu": 1
                    }
                ],
                "abc": [
                    0.75103546,
                    0.82419897,
                    0.02825683
                ],
                "xyz": [
                    8.154162008627434,
                    3.662176091452994,
                    0.1195246593214576
                ],
                "label": "B",
                "properties": {}
            },
            {
                "species": [
                    {
                        "element": "B",
                        "occu": 1
                    }
                ],
                "abc": [
                    0.74896454,
                    0.17580103,
                    0.52825683
                ],
                "xyz": [
                    8.131677561372566,
                    0.7811394485470062,
                    2.2344940193214575
                ],
                "label": "B",
                "properties": {}
            },
            {
                "species": [
                    {
                        "element": "B",
                        "occu": 1
                    }
                ],
                "abc": [
                    0.37775511,
                    0.32747481,
                    0.05556001
                ],
                "xyz": [
                    4.101372745471802,
                    1.4550739122315475,
                    0.2350154375825872
                ],
                "label": "B",
                "properties": {}
            },
            {
                "species": [
                    {
                        "element": "B",
                        "occu": 1
                    }
                ],
                "abc": [
                    0.62224489,
                    0.32747481,
                    0.05556001
                ],
                "xyz": [
                    6.755853634528199,
                    1.4550739122315475,
                    0.2350154375825872
                ],
                "label": "B",
                "properties": {}
            },
            {
                "species": [
                    {
                        "element": "B",
                        "occu": 1
                    }
                ],
                "abc": [
                    0.87775511,
                    0.67252519,
                    0.55556001
                ],
                "xyz": [
                    9.529985935471801,
                    2.9882416277684527,
                    2.349984797582587
                ],
                "label": "B",
                "properties": {}
            },
            {
                "species": [
                    {
                        "element": "B",
                        "occu": 1
                    }
                ],
                "abc": [
                    0.24896454,
                    0.82419897,
                    0.02825683
                ],
                "xyz": [
                    2.7030643713725655,
                    3.662176091452994,
                    0.1195246593214576
                ],
                "label": "B",
                "properties": {}
            },
            {
                "species": [
                    {
                        "element": "B",
                        "occu": 1
                    }
                ],
                "abc": [
                    0.25103546,
                    0.17580103,
                    0.52825683
                ],
                "xyz": [
                    2.7255488186274346,
                    0.7811394485470062,
                    2.2344940193214575
                ],
                "label": "B",
                "properties": {}
            },
            {
                "species": [
                    {
                        "element": "O",
                        "occu": 1
                    }
                ],
                "abc": [
                    0.5,
                    0.23064619,
                    0.94564659
                ],
                "xyz": [
                    5.42861319,
                    1.0248338002687927,
                    4.000027126476964
                ],
                "label": "O",
                "properties": {}
            },
            {
                "species": [
                    {
                        "element": "O",
                        "occu": 1
                    }
                ],
                "abc": [
                    0.0,
                    0.76935381,
                    0.44564659
                ],
                "xyz": [
                    0.0,
                    3.4184817397312077,
                    1.8850577664769648
                ],
                "label": "O",
                "properties": {}
            },
            {
                "species": [
                    {
                        "element": "O",
                        "occu": 1
                    }
                ],
                "abc": [
                    0.21943299,
                    0.87013497,
                    0.38255232
                ],
                "xyz": [
                    2.3824336476702763,
                    3.866284234098434,
                    1.6181728707938303
                ],
                "label": "O",
                "properties": {}
            },
            {
                "species": [
                    {
                        "element": "O",
                        "occu": 1
                    }
                ],
                "abc": [
                    0.28056701,
                    0.12986503,
                    0.88255232
                ],
                "xyz": [
                    3.0461795423297238,
                    0.5770313059015663,
                    3.7331422307938302
                ],
                "label": "O",
                "properties": {}
            },
            {
                "species": [
                    {
                        "element": "O",
                        "occu": 1
                    }
                ],
                "abc": [
                    0.71943299,
                    0.12986503,
                    0.88255232
                ],
                "xyz": [
                    7.811046837670277,
                    0.5770313059015663,
                    3.7331422307938302
                ],
                "label": "O",
                "properties": {}
            },
            {
                "species": [
                    {
                        "element": "O",
                        "occu": 1
                    }
                ],
                "abc": [
                    0.78056701,
                    0.87013497,
                    0.38255232
                ],
                "xyz": [
                    8.474792732329723,
                    3.866284234098434,
                    1.6181728707938303
                ],
                "label": "O",
                "properties": {}
            },
            {
                "species": [
                    {
                        "element": "O",
                        "occu": 1
                    }
                ],
                "abc": [
                    0.14266033,
                    0.35811644,
                    0.47687216
                ],
                "xyz": [
                    1.5488954982555054,
                    1.5912243429814776,
                    2.017140014074035
                ],
                "label": "O",
                "properties": {}
            },
            {
                "species": [
                    {
                        "element": "O",
                        "occu": 1
                    }
                ],
                "abc": [
                    0.35733967,
                    0.64188356,
                    0.97687216
                ],
                "xyz": [
                    3.8797176917444944,
                    2.8520911970185225,
                    4.132109374074035
                ],
                "label": "O",
                "properties": {}
            },
            {
                "species": [
                    {
                        "element": "O",
                        "occu": 1
                    }
                ],
                "abc": [
                    0.64266033,
                    0.64188356,
                    0.97687216
                ],
                "xyz": [
                    6.977508688255505,
                    2.8520911970185225,
                    4.132109374074035
                ],
                "label": "O",
                "properties": {}
            },
            {
                "species": [
                    {
                        "element": "O",
                        "occu": 1
                    }
                ],
                "abc": [
                    0.85733967,
                    0.35811644,
                    0.47687216
                ],
                "xyz": [
                    9.308330881744494,
                    1.5912243429814776,
                    2.017140014074035
                ],
                "label": "O",
                "properties": {}
            },
            {
                "species": [
                    {
                        "element": "O",
                        "occu": 1
                    }
                ],
                "abc": [
                    0.13670076,
                    0.72923343,
                    0.8884189
                ],
                "xyz": [
                    1.4841910976380488,
                    3.2402142318065024,
                    3.757957504689808
                ],
                "label": "O",
                "properties": {}
            },
            {
                "species": [
                    {
                        "element": "O",
                        "occu": 1
                    }
                ],
                "abc": [
                    0.36329924,
                    0.27076657,
                    0.3884189
                ],
                "xyz": [
                    3.9444220923619517,
                    1.2031013081934978,
                    1.642988144689808
                ],
                "label": "O",
                "properties": {}
            },
            {
                "species": [
                    {
                        "element": "O",
                        "occu": 1
                    }
                ],
                "abc": [
                    0.63670076,
                    0.27076657,
                    0.3884189
                ],
                "xyz": [
                    6.912804287638049,
                    1.2031013081934978,
                    1.642988144689808
                ],
                "label": "O",
                "properties": {}
            },
            {
                "species": [
                    {
                        "element": "O",
                        "occu": 1
                    }
                ],
                "abc": [
                    0.86329924,
                    0.72923343,
                    0.8884189
                ],
                "xyz": [
                    9.373035282361952,
                    3.2402142318065024,
                    3.757957504689808
                ],
                "label": "O",
                "properties": {}
            }
        ]
    },
    "spacegroup": {
        "source": "spglib",
        "symbol": "Pmn2_1",
        "number": 31,
        "point_group": "mm2",
        "crystal_system": "orthorhombic",
        "hall": "P 2ac -2"
    },
    "dielectric": {
        "epsilon_ionic": [
            [
                9.33558506,
                0.0,
                -0.0
            ],
            [
                0.0,
                23.20890444,
                -4e-08
            ],
            [
                -0.0,
                -4e-08,
                14.57958426
            ]
        ],
        "epsilon_ionic_avg": 15.708024586666667,
        "epsilon_ionic_eig": [
            14.57958426,
            23.20890444,
            9.33558506
        ],
        "epsilon_electronic": [
            [
                4.02608434,
                0.0,
                0.0
            ],
            [
                0.0,
                3.99207892,
                0.0
            ],
            [
                0.0,
                0.0,
                3.94724961
            ]
        ],
        "epsilon_electronic_avg": 3.9884709566666667,
        "epsilon_electronic_eig": [
            4.02608434,
            3.99207892,
            3.94724961
        ]
    },
    "phonon": {
        "lowest_freq": -0.06139387605035098,
        "frequency": [
            -0.06139387605035098,
            -0.04488148264051566,
            -0.02648783953145137,
            1.5893592230328473,
            2.062929457960005,
            3.119733897380123,
            3.8242731172303985,
            3.91768284528612,
            3.959648655587233,
            4.661562411759815,
            5.182058292596325,
            6.702821084930191,
            7.181829123712389,
            7.622465792198547,
            7.973408774697158,
            8.327182803145641,
            8.565905350024176,
            8.685509737367836,
            9.357608198066698,
            10.146197849874703,
            11.626819044836592,
            12.212493626074638,
            12.422640414339437,
            12.78571398500758,
            14.256399709579394,
            14.332060567679624,
            14.434671271605673,
            14.46911147803522,
            15.242574834125332,
            15.877331439953984,
            16.233022417524428,
            17.43300902723933,
            17.490040193059066,
            17.688261602783854,
            18.145302097216792,
            18.73012485756285,
            18.793079352202163,
            18.91972028890477,
            19.182754273871517,
            21.050356084899185,
            21.168944558889947,
            21.359703460110868,
            22.274148030306566,
            22.31566974884694,
            23.218846753929522,
            23.393698134009746,
            23.62218294497302,
            23.659434546685613,
            23.803402695987334,
            23.918507170915454,
            25.703555323743736,
            25.82559330242631,
            26.067756205471294,
            27.091975614307337,
            27.53490041807148,
            27.836393092534994,
            27.991002452494996,
            28.659326883281228,
            29.264176279376287,
            29.824877295948095,
            30.23834129942532,
            30.351615899111348,
            30.488689138559163,
            30.499072618167034,
            31.919857043302784,
            31.98412579711053,
            32.27077584902179,
            32.32423323877397,
            33.358955521619684,
            33.77435431852618,
            34.97726045477553,
            39.10037034344552
        ]
    },
    "born_effective_charge": {
        "avg_abs_trace": 2.32245,
        "tensors": [
            [
                [
                    3.34115,
                    -0.0,
                    -0.0
                ],
                [
                    -0.0,
                    3.79953,
                    -0.25373
                ],
                [
                    -0.0,
                    -0.28927,
                    3.53735
                ]
            ],
            [
                [
                    3.34115,
                    0.0,
                    -0.0
                ],
                [
                    -0.0,
                    3.79953,
                    0.25373
                ],
                [
                    -0.0,
                    0.28927,
                    3.53735
                ]
            ],
            [
                [
                    2.38762,
                    0.18145,
                    -0.01166
                ],
                [
                    -0.14741,
                    2.81844,
                    0.19152
                ],
                [
                    0.12657,
                    0.10523,
                    2.65406
                ]
            ],
            [
                [
                    3.11438,
                    0.22454,
                    0.03614
                ],
                [
                    0.22249,
                    2.16107,
                    0.07507
                ],
                [
                    0.13916,
                    0.12705,
                    2.42746
                ]
            ],
            [
                [
                    3.11438,
                    0.22454,
                    -0.03614
                ],
                [
                    0.22249,
                    2.16107,
                    -0.07507
                ],
                [
                    -0.13916,
                    -0.12705,
                    2.42746
                ]
            ],
            [
                [
                    2.38762,
                    0.18145,
                    0.01166
                ],
                [
                    -0.14741,
                    2.81844,
                    -0.19152
                ],
                [
                    -0.12657,
                    -0.10523,
                    2.65406
                ]
            ],
            [
                [
                    2.38762,
                    -0.18145,
                    -0.01166
                ],
                [
                    0.14741,
                    2.81844,
                    -0.19152
                ],
                [
                    0.12657,
                    -0.10523,
                    2.65406
                ]
            ],
            [
                [
                    2.38762,
                    -0.18145,
                    0.01166
                ],
                [
                    0.14741,
                    2.81844,
                    0.19152
                ],
                [
                    -0.12657,
                    0.10523,
                    2.65406
                ]
            ],
            [
                [
                    3.11438,
                    -0.22454,
                    -0.03614
                ],
                [
                    -0.22249,
                    2.16107,
                    0.07507
                ],
                [
                    -0.13916,
                    0.12705,
                    2.42746
                ]
            ],
            [
                [
                    3.11438,
                    -0.22454,
                    0.03614
                ],
                [
                    -0.22249,
                    2.16107,
                    -0.07507
                ],
                [
                    0.13916,
                    -0.12705,
                    2.42746
                ]
            ],
            [
                [
                    -2.32052,
                    -0.0,
                    -0.0
                ],
                [
                    -0.0,
                    -1.92437,
                    -0.50243
                ],
                [
                    -0.0,
                    -0.50248,
                    -1.69332
                ]
            ],
            [
                [
                    -2.32052,
                    0.0,
                    -0.0
                ],
                [
                    -0.0,
                    -1.92437,
                    0.50243
                ],
                [
                    -0.0,
                    0.50248,
                    -1.69332
                ]
            ],
            [
                [
                    -1.71932,
                    -0.36447,
                    0.32662
                ],
                [
                    -0.36061,
                    -1.79553,
                    -0.14805
                ],
                [
                    0.27173,
                    -0.11222,
                    -2.08749
                ]
            ],
            [
                [
                    -1.71932,
                    -0.36447,
                    -0.32662
                ],
                [
                    -0.36061,
                    -1.79553,
                    0.14805
                ],
                [
                    -0.27173,
                    0.11222,
                    -2.08749
                ]
            ],
            [
                [
                    -1.71932,
                    0.36447,
                    0.32662
                ],
                [
                    0.36061,
                    -1.79553,
                    0.14805
                ],
                [
                    0.27173,
                    0.11222,
                    -2.08749
                ]
            ],
            [
                [
                    -1.71932,
                    0.36447,
                    -0.32662
                ],
                [
                    0.36061,
                    -1.79553,
                    -0.14805
                ],
                [
                    -0.27173,
                    -0.11222,
                    -2.08749
                ]
            ],
            [
                [
                    -2.22497,
                    0.28533,
                    -0.44773
                ],
                [
                    0.37214,
                    -2.3675,
                    -0.36249
                ],
                [
                    -0.47221,
                    -0.28356,
                    -1.7287
                ]
            ],
            [
                [
                    -2.22497,
                    0.28533,
                    0.44773
                ],
                [
                    0.37214,
                    -2.3675,
                    0.36249
                ],
                [
                    0.47221,
                    0.28356,
                    -1.7287
                ]
            ],
            [
                [
                    -2.22497,
                    -0.28533,
                    -0.44773
                ],
                [
                    -0.37214,
                    -2.3675,
                    0.36249
                ],
                [
                    -0.47221,
                    0.28356,
                    -1.7287
                ]
            ],
            [
                [
                    -2.22497,
                    -0.28533,
                    0.44773
                ],
                [
                    -0.37214,
                    -2.3675,
                    -0.36249
                ],
                [
                    0.47221,
                    -0.28356,
                    -1.7287
                ]
            ],
            [
                [
                    -2.06803,
                    -0.01792,
                    -0.30214
                ],
                [
                    -0.00708,
                    -1.75406,
                    -0.46776
                ],
                [
                    -0.16521,
                    -0.44559,
                    -2.18735
                ]
            ],
            [
                [
                    -2.06803,
                    -0.01792,
                    0.30214
                ],
                [
                    -0.00708,
                    -1.75406,
                    0.46776
                ],
                [
                    0.16521,
                    0.44559,
                    -2.18735
                ]
            ],
            [
                [
                    -2.06803,
                    0.01792,
                    -0.30214
                ],
                [
                    0.00708,
                    -1.75406,
                    0.46776
                ],
                [
                    -0.16521,
                    0.44559,
                    -2.18735
                ]
            ],
            [
                [
                    -2.06803,
                    0.01792,
                    0.30214
                ],
                [
                    0.00708,
                    -1.75406,
                    -0.46776
                ],
                [
                    0.16521,
                    -0.44559,
                    -2.18735
                ]
            ]
        ]
    },
    "band_gap": 3.453099999999999,
    "is_direct": false,
    "formula": "SnB4O7"
}