{
    "mp_id": "mp-18422",
    "nelements": 4,
    "nsites": 28,
    "elements": [
        "Li",
        "O",
        "Rb",
        "Zn"
    ],
    "structure": {
        "@module": "pymatgen.core.structure",
        "@class": "Structure",
        "charge": null,
        "lattice": {
            "matrix": [
                [
                    10.16689134,
                    0.0,
                    0.0
                ],
                [
                    0.0,
                    10.16689134,
                    0.0
                ],
                [
                    0.0,
                    0.0,
                    3.38181932
                ]
            ],
            "a": 10.16689134,
            "b": 10.16689134,
            "c": 3.38181932,
            "alpha": 90.0,
            "beta": 90.0,
            "gamma": 90.0,
            "volume": 349.5640520235236
        },
        "sites": [
            {
                "species": [
                    {
                        "element": "Rb",
                        "occu": 1
                    }
                ],
                "abc": [
                    0.39059944,
                    0.39059944,
                    0.0
                ],
                "xyz": [
                    3.9711820639448496,
                    3.9711820639448496,
                    0.0
                ],
                "label": "Rb",
                "properties": {}
            },
            {
                "species": [
                    {
                        "element": "Rb",
                        "occu": 1
                    }
                ],
                "abc": [
                    0.10940056,
                    0.89059944,
                    0.5
                ],
                "xyz": [
                    1.1122636060551503,
                    9.05462773394485,
                    1.69090966
                ],
                "label": "Rb",
                "properties": {}
            },
            {
                "species": [
                    {
                        "element": "Rb",
                        "occu": 1
                    }
                ],
                "abc": [
                    0.89059944,
                    0.10940056,
                    0.5
                ],
                "xyz": [
                    9.05462773394485,
                    1.1122636060551503,
                    1.69090966
                ],
                "label": "Rb",
                "properties": {}
            },
            {
                "species": [
                    {
                        "element": "Rb",
                        "occu": 1
                    }
                ],
                "abc": [
                    0.60940056,
                    0.60940056,
                    0.0
                ],
                "xyz": [
                    6.19570927605515,
                    6.19570927605515,
                    0.0
                ],
                "label": "Rb",
                "properties": {}
            },
            {
                "species": [
                    {
                        "element": "Li",
                        "occu": 1
                    }
                ],
                "abc": [
                    0.79771504,
                    0.79771504,
                    0.5
                ],
                "xyz": [
                    8.110282131963753,
                    8.110282131963753,
                    1.69090966
                ],
                "label": "Li",
                "properties": {}
            },
            {
                "species": [
                    {
                        "element": "Li",
                        "occu": 1
                    }
                ],
                "abc": [
                    0.20228496,
                    0.20228496,
                    0.5
                ],
                "xyz": [
                    2.0566092080362464,
                    2.0566092080362464,
                    1.69090966
                ],
                "label": "Li",
                "properties": {}
            },
            {
                "species": [
                    {
                        "element": "Li",
                        "occu": 1
                    }
                ],
                "abc": [
                    0.70228496,
                    0.29771504,
                    0.0
                ],
                "xyz": [
                    7.140054878036246,
                    3.0268364619637533,
                    0.0
                ],
                "label": "Li",
                "properties": {}
            },
            {
                "species": [
                    {
                        "element": "Li",
                        "occu": 1
                    }
                ],
                "abc": [
                    0.29771504,
                    0.70228496,
                    0.0
                ],
                "xyz": [
                    3.0268364619637533,
                    7.140054878036246,
                    0.0
                ],
                "label": "Li",
                "properties": {}
            },
            {
                "species": [
                    {
                        "element": "Zn",
                        "occu": 1
                    }
                ],
                "abc": [
                    0.07388962,
                    0.32916774,
                    0.0
                ],
                "xyz": [
                    0.7512277376938908,
                    3.346612645213371,
                    0.0
                ],
                "label": "Zn",
                "properties": {}
            },
            {
                "species": [
                    {
                        "element": "Zn",
                        "occu": 1
                    }
                ],
                "abc": [
                    0.92611038,
                    0.67083226,
                    0.0
                ],
                "xyz": [
                    9.41566360230611,
                    6.820278694786627,
                    0.0
                ],
                "label": "Zn",
                "properties": {}
            },
            {
                "species": [
                    {
                        "element": "Zn",
                        "occu": 1
                    }
                ],
                "abc": [
                    0.82916774,
                    0.42611038,
                    0.5
                ],
                "xyz": [
                    8.43005831521337,
                    4.332217932306109,
                    1.69090966
                ],
                "label": "Zn",
                "properties": {}
            },
            {
                "species": [
                    {
                        "element": "Zn",
                        "occu": 1
                    }
                ],
                "abc": [
                    0.17083226,
                    0.57388962,
                    0.5
                ],
                "xyz": [
                    1.7368330247866284,
                    5.834673407693891,
                    1.69090966
                ],
                "label": "Zn",
                "properties": {}
            },
            {
                "species": [
                    {
                        "element": "Zn",
                        "occu": 1
                    }
                ],
                "abc": [
                    0.32916774,
                    0.07388962,
                    0.0
                ],
                "xyz": [
                    3.346612645213371,
                    0.7512277376938908,
                    0.0
                ],
                "label": "Zn",
                "properties": {}
            },
            {
                "species": [
                    {
                        "element": "Zn",
                        "occu": 1
                    }
                ],
                "abc": [
                    0.42611038,
                    0.82916774,
                    0.5
                ],
                "xyz": [
                    4.332217932306109,
                    8.43005831521337,
                    1.69090966
                ],
                "label": "Zn",
                "properties": {}
            },
            {
                "species": [
                    {
                        "element": "Zn",
                        "occu": 1
                    }
                ],
                "abc": [
                    0.57388962,
                    0.17083226,
                    0.5
                ],
                "xyz": [
                    5.834673407693891,
                    1.7368330247866284,
                    1.69090966
                ],
                "label": "Zn",
                "properties": {}
            },
            {
                "species": [
                    {
                        "element": "Zn",
                        "occu": 1
                    }
                ],
                "abc": [
                    0.67083226,
                    0.92611038,
                    0.0
                ],
                "xyz": [
                    6.820278694786627,
                    9.41566360230611,
                    0.0
                ],
                "label": "Zn",
                "properties": {}
            },
            {
                "species": [
                    {
                        "element": "O",
                        "occu": 1
                    }
                ],
                "abc": [
                    0.15284371,
                    0.38750833,
                    0.5
                ],
                "xyz": [
                    1.5539453915724712,
                    3.939755084454862,
                    1.69090966
                ],
                "label": "O",
                "properties": {}
            },
            {
                "species": [
                    {
                        "element": "O",
                        "occu": 1
                    }
                ],
                "abc": [
                    0.61249167,
                    0.84715629,
                    0.5
                ],
                "xyz": [
                    6.227136255545138,
                    8.612945948427528,
                    1.69090966
                ],
                "label": "O",
                "properties": {}
            },
            {
                "species": [
                    {
                        "element": "O",
                        "occu": 1
                    }
                ],
                "abc": [
                    0.38750833,
                    0.15284371,
                    0.5
                ],
                "xyz": [
                    3.939755084454862,
                    1.5539453915724712,
                    1.69090966
                ],
                "label": "O",
                "properties": {}
            },
            {
                "species": [
                    {
                        "element": "O",
                        "occu": 1
                    }
                ],
                "abc": [
                    0.34715629,
                    0.88750833,
                    0.0
                ],
                "xyz": [
                    3.5295002784275282,
                    9.02320075445486,
                    0.0
                ],
                "label": "O",
                "properties": {}
            },
            {
                "species": [
                    {
                        "element": "O",
                        "occu": 1
                    }
                ],
                "abc": [
                    0.85781371,
                    0.85781371,
                    0.0
                ],
                "xyz": [
                    8.72129877953227,
                    8.72129877953227,
                    0.0
                ],
                "label": "O",
                "properties": {}
            },
            {
                "species": [
                    {
                        "element": "O",
                        "occu": 1
                    }
                ],
                "abc": [
                    0.64218629,
                    0.35781371,
                    0.5
                ],
                "xyz": [
                    6.529038230467728,
                    3.637853109532271,
                    1.69090966
                ],
                "label": "O",
                "properties": {}
            },
            {
                "species": [
                    {
                        "element": "O",
                        "occu": 1
                    }
                ],
                "abc": [
                    0.35781371,
                    0.64218629,
                    0.5
                ],
                "xyz": [
                    3.637853109532271,
                    6.529038230467728,
                    1.69090966
                ],
                "label": "O",
                "properties": {}
            },
            {
                "species": [
                    {
                        "element": "O",
                        "occu": 1
                    }
                ],
                "abc": [
                    0.14218629,
                    0.14218629,
                    0.0
                ],
                "xyz": [
                    1.4455925604677284,
                    1.4455925604677284,
                    0.0
                ],
                "label": "O",
                "properties": {}
            },
            {
                "species": [
                    {
                        "element": "O",
                        "occu": 1
                    }
                ],
                "abc": [
                    0.84715629,
                    0.61249167,
                    0.5
                ],
                "xyz": [
                    8.612945948427528,
                    6.227136255545138,
                    1.69090966
                ],
                "label": "O",
                "properties": {}
            },
            {
                "species": [
                    {
                        "element": "O",
                        "occu": 1
                    }
                ],
                "abc": [
                    0.11249167,
                    0.65284371,
                    0.0
                ],
                "xyz": [
                    1.1436905855451378,
                    6.637391061572471,
                    0.0
                ],
                "label": "O",
                "properties": {}
            },
            {
                "species": [
                    {
                        "element": "O",
                        "occu": 1
                    }
                ],
                "abc": [
                    0.88750833,
                    0.34715629,
                    0.0
                ],
                "xyz": [
                    9.02320075445486,
                    3.5295002784275282,
                    0.0
                ],
                "label": "O",
                "properties": {}
            },
            {
                "species": [
                    {
                        "element": "O",
                        "occu": 1
                    }
                ],
                "abc": [
                    0.65284371,
                    0.11249167,
                    0.0
                ],
                "xyz": [
                    6.637391061572471,
                    1.1436905855451378,
                    0.0
                ],
                "label": "O",
                "properties": {}
            }
        ]
    },
    "spacegroup": {
        "source": "spglib",
        "symbol": "P4_2/mnm",
        "number": 136,
        "point_group": "4/mmm",
        "crystal_system": "tetragonal",
        "hall": "-P 4n 2n"
    },
    "dielectric": {
        "epsilon_ionic": [
            [
                6.19253193,
                -2e-08,
                -1e-08
            ],
            [
                -2e-08,
                6.19251316,
                -1e-08
            ],
            [
                -1e-08,
                -1e-08,
                5.8064414
            ]
        ],
        "epsilon_ionic_avg": 6.063828830000001,
        "epsilon_ionic_eig": [
            6.192531930021314,
            6.19251315997869,
            5.8064414
        ],
        "epsilon_electronic": [
            [
                3.67896219,
                0.0,
                0.0
            ],
            [
                0.0,
                3.67896219,
                0.0
            ],
            [
                0.0,
                0.0,
                3.6870848
            ]
        ],
        "epsilon_electronic_avg": 3.681669726666667,
        "epsilon_electronic_eig": [
            3.67896219,
            3.67896219,
            3.6870848
        ]
    },
    "phonon": {
        "lowest_freq": -0.060268112839177955,
        "frequency": [
            -0.060268112839177955,
            -0.060268112839177955,
            -0.04495892984104969,
            1.4615942000523252,
            1.4615942000523252,
            1.8118366279496676,
            2.002510948153783,
            2.2057820739025615,
            2.222455620689298,
            2.45273262560267,
            2.45273262560267,
            2.746396190142836,
            2.752802419988605,
            2.752802419988605,
            2.9175267734374772,
            2.9175267734374772,
            2.96491306371322,
            3.370481916661456,
            3.5293210632358782,
            3.8784667533297386,
            3.8859309597841234,
            4.082606930435778,
            4.082606930435778,
            4.109254130017408,
            4.109254130017408,
            4.119434578044949,
            4.396841226951771,
            4.488497859591403,
            4.645489023201823,
            4.918914788617117,
            5.047901201674146,
            5.524176878802279,
            5.524176878802279,
            5.86525600430559,
            5.86525600430559,
            6.187800081432415,
            7.360816143764589,
            7.360816143764589,
            7.745935981998293,
            7.988706119273719,
            8.336239077914797,
            8.363226194770549,
            8.363226194770549,
            8.402864166453172,
            8.870811291470899,
            8.870811291470899,
            8.99530122591222,
            9.235665130097605,
            9.235665130097605,
            9.644048842833072,
            9.944913960803326,
            10.496663818544032,
            10.844773020698355,
            11.76215725164148,
            11.76215725164148,
            11.917605005643413,
            12.059425308507729,
            12.197051825839946,
            12.67682553281771,
            12.67682553281771,
            12.7856378684746,
            12.7856378684746,
            13.405087448619701,
            13.491564842148374,
            13.552118124591628,
            13.552118124591628,
            13.559248533382583,
            14.74540396351001,
            15.062331961135891,
            15.922690996367516,
            15.922690996367516,
            16.08759851265502,
            16.121137581736342,
            17.077704044225573,
            17.077704044225573,
            17.138377503675976,
            18.036317148321164,
            18.036317148321164,
            18.088723986419524,
            18.097949031654903,
            18.097949031654903,
            18.10119281140116,
            18.133161875702342,
            18.430772707349877
        ]
    },
    "born_effective_charge": {
        "avg_abs_trace": 1.7195733333333334,
        "tensors": [
            [
                [
                    1.31493,
                    -0.10527,
                    0.0
                ],
                [
                    -0.10527,
                    1.31493,
                    0.0
                ],
                [
                    7e-05,
                    7e-05,
                    1.19952
                ]
            ],
            [
                [
                    1.31493,
                    0.10523,
                    0.0
                ],
                [
                    0.10527,
                    1.31493,
                    0.0
                ],
                [
                    -7e-05,
                    7e-05,
                    1.19952
                ]
            ],
            [
                [
                    1.31493,
                    0.10527,
                    0.0
                ],
                [
                    0.10523,
                    1.31493,
                    0.0
                ],
                [
                    7e-05,
                    -7e-05,
                    1.19952
                ]
            ],
            [
                [
                    1.31493,
                    -0.10523,
                    0.0
                ],
                [
                    -0.10523,
                    1.31493,
                    0.0
                ],
                [
                    -7e-05,
                    -7e-05,
                    1.19952
                ]
            ],
            [
                [
                    0.87546,
                    -0.16396,
                    0.0
                ],
                [
                    -0.16396,
                    0.87546,
                    0.0
                ],
                [
                    -0.00012,
                    -0.00012,
                    0.93401
                ]
            ],
            [
                [
                    0.87541,
                    -0.16395,
                    0.0
                ],
                [
                    -0.16395,
                    0.87541,
                    0.0
                ],
                [
                    0.00012,
                    0.00012,
                    0.93401
                ]
            ],
            [
                [
                    0.87541,
                    0.16395,
                    0.0
                ],
                [
                    0.16396,
                    0.87546,
                    0.0
                ],
                [
                    0.00012,
                    -0.00012,
                    0.93401
                ]
            ],
            [
                [
                    0.87546,
                    0.16396,
                    0.0
                ],
                [
                    0.16395,
                    0.87541,
                    0.0
                ],
                [
                    -0.00012,
                    0.00012,
                    0.93401
                ]
            ],
            [
                [
                    1.90085,
                    -0.30631,
                    0.0
                ],
                [
                    -0.12127,
                    1.8414,
                    0.0
                ],
                [
                    0.0001,
                    3e-05,
                    2.02842
                ]
            ],
            [
                [
                    1.9009,
                    -0.30623,
                    0.0
                ],
                [
                    -0.12128,
                    1.84127,
                    0.0
                ],
                [
                    -0.0001,
                    -3e-05,
                    2.02842
                ]
            ],
            [
                [
                    1.8414,
                    0.12127,
                    0.0
                ],
                [
                    0.30623,
                    1.9009,
                    0.0
                ],
                [
                    3e-05,
                    -0.0001,
                    2.02842
                ]
            ],
            [
                [
                    1.84127,
                    0.12128,
                    0.0
                ],
                [
                    0.30631,
                    1.90085,
                    0.0
                ],
                [
                    -3e-05,
                    0.0001,
                    2.02842
                ]
            ],
            [
                [
                    1.8414,
                    -0.12127,
                    0.0
                ],
                [
                    -0.30631,
                    1.90085,
                    0.0
                ],
                [
                    3e-05,
                    0.0001,
                    2.02842
                ]
            ],
            [
                [
                    1.9009,
                    0.30623,
                    0.0
                ],
                [
                    0.12127,
                    1.8414,
                    0.0
                ],
                [
                    -0.0001,
                    3e-05,
                    2.02842
                ]
            ],
            [
                [
                    1.90085,
                    0.30631,
                    0.0
                ],
                [
                    0.12128,
                    1.84127,
                    0.0
                ],
                [
                    0.0001,
                    -3e-05,
                    2.02842
                ]
            ],
            [
                [
                    1.84127,
                    -0.12128,
                    0.0
                ],
                [
                    -0.30623,
                    1.9009,
                    0.0
                ],
                [
                    -3e-05,
                    -0.0001,
                    2.02842
                ]
            ],
            [
                [
                    -1.6209,
                    -0.02754,
                    0.0
                ],
                [
                    -0.20794,
                    -2.14725,
                    0.0
                ],
                [
                    -0.0,
                    -6e-05,
                    -2.25646
                ]
            ],
            [
                [
                    -2.14735,
                    -0.2077,
                    0.0
                ],
                [
                    -0.02748,
                    -1.62093,
                    0.0
                ],
                [
                    6e-05,
                    0.0,
                    -2.25646
                ]
            ],
            [
                [
                    -2.14725,
                    -0.20793,
                    0.0
                ],
                [
                    -0.02754,
                    -1.62089,
                    0.0
                ],
                [
                    -6e-05,
                    -0.0,
                    -2.25646
                ]
            ],
            [
                [
                    -1.62093,
                    0.02748,
                    0.0
                ],
                [
                    0.20794,
                    -2.14725,
                    0.0
                ],
                [
                    0.0,
                    -6e-05,
                    -2.25646
                ]
            ],
            [
                [
                    -2.1644,
                    0.38036,
                    0.0
                ],
                [
                    0.38036,
                    -2.1644,
                    0.0
                ],
                [
                    0.0003,
                    0.0003,
                    -1.67745
                ]
            ],
            [
                [
                    -2.16433,
                    -0.3804,
                    0.0
                ],
                [
                    -0.38036,
                    -2.1644,
                    0.0
                ],
                [
                    -0.0003,
                    0.0003,
                    -1.67745
                ]
            ],
            [
                [
                    -2.1644,
                    -0.38036,
                    0.0
                ],
                [
                    -0.38039,
                    -2.16433,
                    0.0
                ],
                [
                    0.0003,
                    -0.0003,
                    -1.67745
                ]
            ],
            [
                [
                    -2.16433,
                    0.3804,
                    0.0
                ],
                [
                    0.38039,
                    -2.16433,
                    0.0
                ],
                [
                    -0.0003,
                    -0.0003,
                    -1.67745
                ]
            ],
            [
                [
                    -1.62093,
                    -0.02748,
                    0.0
                ],
                [
                    -0.2077,
                    -2.14734,
                    0.0
                ],
                [
                    0.0,
                    6e-05,
                    -2.25646
                ]
            ],
            [
                [
                    -2.14735,
                    0.2077,
                    0.0
                ],
                [
                    0.02754,
                    -1.62089,
                    0.0
                ],
                [
                    6e-05,
                    -0.0,
                    -2.25646
                ]
            ],
            [
                [
                    -2.14725,
                    0.20793,
                    0.0
                ],
                [
                    0.02748,
                    -1.62093,
                    0.0
                ],
                [
                    -6e-05,
                    0.0,
                    -2.25646
                ]
            ],
            [
                [
                    -1.6209,
                    0.02754,
                    0.0
                ],
                [
                    0.2077,
                    -2.14734,
                    0.0
                ],
                [
                    -0.0,
                    6e-05,
                    -2.25646
                ]
            ]
        ]
    },
    "band_gap": 2.4806999999999997,
    "is_direct": true,
    "formula": "RbLiZn2O3"
}