{
    "mp_id": "mp-19215",
    "nelements": 3,
    "nsites": 12,
    "elements": [
        "Ca",
        "Cr",
        "O"
    ],
    "structure": {
        "@module": "pymatgen.core.structure",
        "@class": "Structure",
        "charge": null,
        "lattice": {
            "matrix": [
                [
                    -3.61399059,
                    3.61399059,
                    3.10722704
                ],
                [
                    3.61399059,
                    -3.61399059,
                    3.10722704
                ],
                [
                    3.61399059,
                    3.61399059,
                    -3.10722704
                ]
            ],
            "a": 5.9813640457109996,
            "b": 5.9813640457109996,
            "c": 5.9813640457109996,
            "alpha": 105.65619456726574,
            "beta": 105.65619456726574,
            "gamma": 117.40461642353054,
            "volume": 162.33307440507352
        },
        "sites": [
            {
                "species": [
                    {
                        "element": "Ca",
                        "occu": 1
                    }
                ],
                "abc": [
                    0.75,
                    0.25,
                    0.5
                ],
                "xyz": [
                    2.220446049250313e-16,
                    3.6139905899999993,
                    1.55361352
                ],
                "label": "Ca",
                "properties": {}
            },
            {
                "species": [
                    {
                        "element": "Ca",
                        "occu": 1
                    }
                ],
                "abc": [
                    0.0,
                    0.0,
                    0.0
                ],
                "xyz": [
                    0.0,
                    0.0,
                    0.0
                ],
                "label": "Ca",
                "properties": {}
            },
            {
                "species": [
                    {
                        "element": "Cr",
                        "occu": 1
                    }
                ],
                "abc": [
                    0.5,
                    0.5,
                    0.0
                ],
                "xyz": [
                    0.0,
                    0.0,
                    3.10722704
                ],
                "label": "Cr",
                "properties": {}
            },
            {
                "species": [
                    {
                        "element": "Cr",
                        "occu": 1
                    }
                ],
                "abc": [
                    0.25,
                    0.75,
                    0.5
                ],
                "xyz": [
                    3.6139905899999993,
                    2.220446049250313e-16,
                    1.55361352
                ],
                "label": "Cr",
                "properties": {}
            },
            {
                "species": [
                    {
                        "element": "O",
                        "occu": 1
                    }
                ],
                "abc": [
                    0.23123757,
                    0.9122251,
                    0.31901146
                ],
                "xyz": [
                    3.613986939869504,
                    -1.3081781107851813,
                    2.5617570928727185
                ],
                "label": "O",
                "properties": {}
            },
            {
                "species": [
                    {
                        "element": "O",
                        "occu": 1
                    }
                ],
                "abc": [
                    0.6622251,
                    0.84321364,
                    0.18098854
                ],
                "xyz": [
                    1.3081817609156774,
                    -1.1102230246251565e-16,
                    4.115367474573408
                ],
                "label": "O",
                "properties": {}
            },
            {
                "species": [
                    {
                        "element": "O",
                        "occu": 1
                    }
                ],
                "abc": [
                    0.6622251,
                    0.48123757,
                    0.81901146
                ],
                "xyz": [
                    2.305812479214819,
                    3.613986939869504,
                    1.0081435728727182
                ],
                "label": "O",
                "properties": {}
            },
            {
                "species": [
                    {
                        "element": "O",
                        "occu": 1
                    }
                ],
                "abc": [
                    0.59321364,
                    0.9122251,
                    0.68098854
                ],
                "xyz": [
                    3.61399059,
                    1.308181760915677,
                    2.5617539545734083
                ],
                "label": "O",
                "properties": {}
            },
            {
                "species": [
                    {
                        "element": "O",
                        "occu": 1
                    }
                ],
                "abc": [
                    0.0877749,
                    0.40678636,
                    0.31901146
                ],
                "xyz": [
                    2.305808829084323,
                    2.220446049250313e-16,
                    0.5454730854265919
                ],
                "label": "O",
                "properties": {}
            },
            {
                "species": [
                    {
                        "element": "O",
                        "occu": 1
                    }
                ],
                "abc": [
                    0.51876243,
                    0.3377749,
                    0.18098854
                ],
                "xyz": [
                    3.650130495969073e-06,
                    1.3081781107851813,
                    2.099083467127282
                ],
                "label": "O",
                "properties": {}
            },
            {
                "species": [
                    {
                        "element": "O",
                        "occu": 1
                    }
                ],
                "abc": [
                    0.15678636,
                    0.3377749,
                    0.81901146
                ],
                "xyz": [
                    3.6139905900000002,
                    2.305808829084323,
                    -1.008140434573408
                ],
                "label": "O",
                "properties": {}
            },
            {
                "species": [
                    {
                        "element": "O",
                        "occu": 1
                    }
                ],
                "abc": [
                    0.0877749,
                    0.76876243,
                    0.68098854
                ],
                "xyz": [
                    4.922168700785181,
                    3.650130495636006e-06,
                    0.5454699471272821
                ],
                "label": "O",
                "properties": {}
            }
        ]
    },
    "spacegroup": {
        "source": "spglib",
        "symbol": "I4_1/amd",
        "number": 141,
        "point_group": "4/mmm",
        "crystal_system": "tetragonal",
        "hall": "I 4bw 2bw -1bw"
    },
    "dielectric": {
        "epsilon_ionic": [
            [
                4.07080656,
                -4e-08,
                -0.0
            ],
            [
                -4e-08,
                4.07082949,
                -0.0
            ],
            [
                -0.0,
                -0.0,
                6.54936954
            ]
        ],
        "epsilon_ionic_avg": 4.897001863333333,
        "epsilon_ionic_eig": [
            4.070806559930223,
            4.0708294900697775,
            6.54936954
        ],
        "epsilon_electronic": [
            [
                3.54106781,
                0.0,
                0.0
            ],
            [
                0.0,
                3.54106781,
                -0.0
            ],
            [
                0.0,
                0.0,
                4.03129414
            ]
        ],
        "epsilon_electronic_avg": 3.7044765866666665,
        "epsilon_electronic_eig": [
            3.54106781,
            3.54106781,
            4.03129414
        ]
    },
    "phonon": {
        "lowest_freq": -0.07077377061997957,
        "frequency": [
            -0.07077377061997957,
            -0.07077377061997957,
            -0.02808898078610628,
            1.3977298851834516,
            3.176406774035469,
            3.176406774035469,
            4.119652503888876,
            4.4600116664738,
            4.591514242978152,
            4.591514242978152,
            5.1202500158343955,
            5.1202500158343955,
            6.821128233404976,
            6.821128233404976,
            6.951221539903208,
            7.006371482525292,
            7.251254951374437,
            7.251254951374437,
            8.909118620107252,
            9.87731523441644,
            9.87731523441644,
            10.042957401660871,
            11.079331175326953,
            11.079331175326953,
            11.242337413828553,
            12.24398510980243,
            12.778224456686544,
            13.561578896840278,
            26.581048657489813,
            26.80823665835337,
            26.979597085180277,
            26.979597085180277,
            27.517394417910836,
            28.036552328414306,
            28.090048934925626,
            28.090048934925626
        ]
    },
    "born_effective_charge": {
        "avg_abs_trace": 1.9790138888888889,
        "tensors": [
            [
                [
                    2.65842,
                    0.0,
                    0.00015
                ],
                [
                    0.0,
                    2.65842,
                    -0.00021
                ],
                [
                    0.0,
                    0.0,
                    3.44155
                ]
            ],
            [
                [
                    2.65842,
                    0.0,
                    -0.00015
                ],
                [
                    0.0,
                    2.65842,
                    0.00021
                ],
                [
                    0.0,
                    0.0,
                    3.44155
                ]
            ],
            [
                [
                    2.88564,
                    0.0,
                    1e-05
                ],
                [
                    0.0,
                    2.88565,
                    -3e-05
                ],
                [
                    0.0,
                    0.0,
                    3.28143
                ]
            ],
            [
                [
                    2.88564,
                    0.0,
                    -1e-05
                ],
                [
                    0.0,
                    2.88565,
                    3e-05
                ],
                [
                    0.0,
                    0.0,
                    3.28143
                ]
            ],
            [
                [
                    -0.54331,
                    -0.00011,
                    9e-05
                ],
                [
                    0.0,
                    -2.22867,
                    1.12125
                ],
                [
                    0.0,
                    1.02004,
                    -1.6807
                ]
            ],
            [
                [
                    -2.22881,
                    0.0,
                    -1.12155
                ],
                [
                    -3e-05,
                    -0.54332,
                    -5e-05
                ],
                [
                    -1.02004,
                    0.0,
                    -1.6807
                ]
            ],
            [
                [
                    -2.22862,
                    0.0,
                    1.12125
                ],
                [
                    3e-05,
                    -0.54332,
                    -5e-05
                ],
                [
                    1.02004,
                    -0.0,
                    -1.6807
                ]
            ],
            [
                [
                    -0.54331,
                    0.00011,
                    9e-05
                ],
                [
                    0.0,
                    -2.22878,
                    -1.12159
                ],
                [
                    -0.0,
                    -1.02004,
                    -1.6807
                ]
            ],
            [
                [
                    -2.22862,
                    0.0,
                    -1.12125
                ],
                [
                    3e-05,
                    -0.54332,
                    5e-05
                ],
                [
                    -1.01993,
                    0.0,
                    -1.6808
                ]
            ],
            [
                [
                    -0.54331,
                    0.00011,
                    -9e-05
                ],
                [
                    0.0,
                    -2.22878,
                    1.12159
                ],
                [
                    0.0,
                    1.01993,
                    -1.6808
                ]
            ],
            [
                [
                    -0.54331,
                    -0.00011,
                    -9e-05
                ],
                [
                    0.0,
                    -2.22867,
                    -1.12125
                ],
                [
                    0.0,
                    -1.01993,
                    -1.6808
                ]
            ],
            [
                [
                    -2.22881,
                    0.0,
                    1.12155
                ],
                [
                    -3e-05,
                    -0.54332,
                    5e-05
                ],
                [
                    1.01993,
                    0.0,
                    -1.6808
                ]
            ]
        ]
    },
    "band_gap": 2.3321,
    "is_direct": false,
    "formula": "CaCrO4"
}