{
    "mp_id": "mp-1211473",
    "nelements": 4,
    "nsites": 24,
    "elements": [
        "K",
        "La",
        "O",
        "W"
    ],
    "structure": {
        "@module": "pymatgen.core.structure",
        "@class": "Structure",
        "charge": null,
        "lattice": {
            "matrix": [
                [
                    5.17182142,
                    -5.40990801,
                    0.00024401
                ],
                [
                    5.17182142,
                    5.40990801,
                    0.00024401
                ],
                [
                    -4.44188137,
                    0.0,
                    6.11572694
                ]
            ],
            "a": 7.484306349727666,
            "b": 7.484306349727666,
            "c": 7.558599480710354,
            "alpha": 113.9575202594662,
            "beta": 113.9575202594662,
            "gamma": 92.57784992211751,
            "volume": 342.2365309107068
        },
        "sites": [
            {
                "species": [
                    {
                        "element": "K",
                        "occu": 1
                    }
                ],
                "abc": [
                    0.30985961,
                    0.30985961,
                    0.47011563
                ],
                "xyz": [
                    1.1168792777388794,
                    0.0,
                    2.8752500409929445
                ],
                "label": "K",
                "properties": {}
            },
            {
                "species": [
                    {
                        "element": "K",
                        "occu": 1
                    }
                ],
                "abc": [
                    0.69014039,
                    0.69014039,
                    0.52988437
                ],
                "xyz": [
                    4.78488219226112,
                    0.0,
                    3.2409649190070557
                ],
                "label": "K",
                "properties": {}
            },
            {
                "species": [
                    {
                        "element": "La",
                        "occu": 1
                    }
                ],
                "abc": [
                    0.69855444,
                    0.30144556,
                    0.0
                ],
                "xyz": [
                    5.17182142,
                    -2.148322510754129,
                    0.00024401000000000002
                ],
                "label": "La",
                "properties": {}
            },
            {
                "species": [
                    {
                        "element": "La",
                        "occu": 1
                    }
                ],
                "abc": [
                    0.30144556,
                    0.69855444,
                    0.0
                ],
                "xyz": [
                    5.17182142,
                    2.148322510754129,
                    0.00024401000000000002
                ],
                "label": "La",
                "properties": {}
            },
            {
                "species": [
                    {
                        "element": "W",
                        "occu": 1
                    }
                ],
                "abc": [
                    0.79637805,
                    0.79637805,
                    0.0597031
                ],
                "xyz": [
                    7.9722560271944145,
                    0.0,
                    0.365516505487475
                ],
                "label": "W",
                "properties": {}
            },
            {
                "species": [
                    {
                        "element": "W",
                        "occu": 1
                    }
                ],
                "abc": [
                    0.20362195,
                    0.20362195,
                    0.9402969
                ],
                "xyz": [
                    -2.0704945571944147,
                    0.0,
                    5.750698454512524
                ],
                "label": "W",
                "properties": {}
            },
            {
                "species": [
                    {
                        "element": "W",
                        "occu": 1
                    }
                ],
                "abc": [
                    0.83876217,
                    0.16123783,
                    0.5
                ],
                "xyz": [
                    2.9508807349999997,
                    -3.6653443539359634,
                    3.05810748
                ],
                "label": "W",
                "properties": {}
            },
            {
                "species": [
                    {
                        "element": "W",
                        "occu": 1
                    }
                ],
                "abc": [
                    0.16123783,
                    0.83876217,
                    0.5
                ],
                "xyz": [
                    2.9508807349999997,
                    3.6653443539359634,
                    3.05810748
                ],
                "label": "W",
                "properties": {}
            },
            {
                "species": [
                    {
                        "element": "O",
                        "occu": 1
                    }
                ],
                "abc": [
                    0.90697842,
                    0.6556504,
                    0.26281179
                ],
                "xyz": [
                    6.914258408967971,
                    -1.3596614685354402,
                    1.6076664413109907
                ],
                "label": "O",
                "properties": {}
            },
            {
                "species": [
                    {
                        "element": "O",
                        "occu": 1
                    }
                ],
                "abc": [
                    0.09302158,
                    0.3443496,
                    0.73718821
                ],
                "xyz": [
                    -1.0124969389679728,
                    1.35966146853544,
                    4.508548518689009
                ],
                "label": "O",
                "properties": {}
            },
            {
                "species": [
                    {
                        "element": "O",
                        "occu": 1
                    }
                ],
                "abc": [
                    0.3443496,
                    0.09302158,
                    0.73718821
                ],
                "xyz": [
                    -1.0124969389679728,
                    -1.35966146853544,
                    4.508548518689009
                ],
                "label": "O",
                "properties": {}
            },
            {
                "species": [
                    {
                        "element": "O",
                        "occu": 1
                    }
                ],
                "abc": [
                    0.6556504,
                    0.90697842,
                    0.26281179
                ],
                "xyz": [
                    6.914258408967971,
                    1.3596614685354402,
                    1.6076664413109907
                ],
                "label": "O",
                "properties": {}
            },
            {
                "species": [
                    {
                        "element": "O",
                        "occu": 1
                    }
                ],
                "abc": [
                    0.78347567,
                    0.30851624,
                    0.35779073
                ],
                "xyz": [
                    4.058323172659011,
                    -2.5694868247820337,
                    2.1884168632892256
                ],
                "label": "O",
                "properties": {}
            },
            {
                "species": [
                    {
                        "element": "O",
                        "occu": 1
                    }
                ],
                "abc": [
                    0.21652433,
                    0.69148376,
                    0.64220927
                ],
                "xyz": [
                    1.8434382973409869,
                    2.569486824782034,
                    3.927798096710775
                ],
                "label": "O",
                "properties": {}
            },
            {
                "species": [
                    {
                        "element": "O",
                        "occu": 1
                    }
                ],
                "abc": [
                    0.69148376,
                    0.21652433,
                    0.64220927
                ],
                "xyz": [
                    1.8434382973409869,
                    -2.569486824782034,
                    3.927798096710775
                ],
                "label": "O",
                "properties": {}
            },
            {
                "species": [
                    {
                        "element": "O",
                        "occu": 1
                    }
                ],
                "abc": [
                    0.30851624,
                    0.78347567,
                    0.35779073
                ],
                "xyz": [
                    4.058323172659011,
                    2.5694868247820337,
                    2.1884168632892256
                ],
                "label": "O",
                "properties": {}
            },
            {
                "species": [
                    {
                        "element": "O",
                        "occu": 1
                    }
                ],
                "abc": [
                    0.04403905,
                    0.29652179,
                    0.06242814
                ],
                "xyz": [
                    1.484021455095441,
                    1.3659083975127473,
                    0.38187655786266
                ],
                "label": "O",
                "properties": {}
            },
            {
                "species": [
                    {
                        "element": "O",
                        "occu": 1
                    }
                ],
                "abc": [
                    0.95596095,
                    0.70347821,
                    0.93757186
                ],
                "xyz": [
                    4.41774001490456,
                    -1.3659083975127477,
                    5.7343384021373405
                ],
                "label": "O",
                "properties": {}
            },
            {
                "species": [
                    {
                        "element": "O",
                        "occu": 1
                    }
                ],
                "abc": [
                    0.70347821,
                    0.95596095,
                    0.93757186
                ],
                "xyz": [
                    4.41774001490456,
                    1.3659083975127477,
                    5.7343384021373405
                ],
                "label": "O",
                "properties": {}
            },
            {
                "species": [
                    {
                        "element": "O",
                        "occu": 1
                    }
                ],
                "abc": [
                    0.29652179,
                    0.04403905,
                    0.06242814
                ],
                "xyz": [
                    1.484021455095441,
                    -1.3659083975127473,
                    0.38187655786266
                ],
                "label": "O",
                "properties": {}
            },
            {
                "species": [
                    {
                        "element": "O",
                        "occu": 1
                    }
                ],
                "abc": [
                    0.01568264,
                    0.01568264,
                    0.34427674
                ],
                "xyz": [
                    -1.3670208105820363,
                    0.0,
                    2.1055101870753483
                ],
                "label": "O",
                "properties": {}
            },
            {
                "species": [
                    {
                        "element": "O",
                        "occu": 1
                    }
                ],
                "abc": [
                    0.98431736,
                    0.98431736,
                    0.65572326
                ],
                "xyz": [
                    7.268782280582036,
                    0.0,
                    4.010704772924652
                ],
                "label": "O",
                "properties": {}
            },
            {
                "species": [
                    {
                        "element": "O",
                        "occu": 1
                    }
                ],
                "abc": [
                    0.42435968,
                    0.42435968,
                    0.10541798
                ],
                "xyz": [
                    3.921170804191659,
                    0.0,
                    0.6449146762574148
                ],
                "label": "O",
                "properties": {}
            },
            {
                "species": [
                    {
                        "element": "O",
                        "occu": 1
                    }
                ],
                "abc": [
                    0.57564032,
                    0.57564032,
                    0.89458202
                ],
                "xyz": [
                    1.9805906658083408,
                    0.0,
                    5.471300283742585
                ],
                "label": "O",
                "properties": {}
            }
        ]
    },
    "spacegroup": {
        "source": "spglib",
        "symbol": "C2/m",
        "number": 12,
        "point_group": "2/m",
        "crystal_system": "monoclinic",
        "hall": "-C 2y"
    },
    "dielectric": {
        "epsilon_ionic": [
            [
                9.76841671,
                0.0,
                0.30892356
            ],
            [
                0.0,
                10.85715568,
                1e-08
            ],
            [
                0.30892356,
                1e-08,
                9.07956738
            ]
        ],
        "epsilon_ionic_avg": 9.901713256666667,
        "epsilon_ionic_eig": [
            8.96132357213478,
            9.886660517865224,
            10.85715568
        ],
        "epsilon_electronic": [
            [
                4.00803715,
                0.0,
                0.01243705
            ],
            [
                0.0,
                4.14071977,
                0.0
            ],
            [
                0.01243832,
                0.0,
                4.26816661
            ]
        ],
        "epsilon_electronic_avg": 4.13897451,
        "epsilon_electronic_eig": [
            4.007443814815607,
            4.268759945184392,
            4.14071977
        ]
    },
    "phonon": {
        "lowest_freq": -0.040286484824479434,
        "frequency": [
            -0.040286484824479434,
            -0.03744744498579031,
            -0.024615890141735295,
            1.4684620488877451,
            2.1527382516945437,
            2.3549329586333934,
            2.531692446647674,
            2.8673202937840117,
            2.8935571529975475,
            3.231217465110534,
            3.379493333760369,
            3.4595714663044674,
            3.4945596341894474,
            3.504653209802062,
            3.885722150614493,
            3.9408894203411364,
            4.295726532238759,
            4.356123170156118,
            4.402634394063959,
            4.515408924291689,
            4.6867745191797,
            4.9105504812704215,
            4.915385732718599,
            5.0205501010326845,
            5.443786863072641,
            5.615785335379469,
            5.843447567312657,
            6.115729379636572,
            6.254116640762726,
            6.327372580991376,
            6.9373144456158755,
            7.061294385239852,
            7.272424249750772,
            7.444846606352574,
            8.094595297500334,
            8.222003319933606,
            9.174584391186794,
            9.222393455929515,
            9.370459112207039,
            9.64174011959495,
            10.091808912088121,
            10.310240669281495,
            10.693810509561231,
            10.745715485253026,
            11.142112116289299,
            11.24424724153034,
            11.530165551760657,
            11.721053635885022,
            11.897310168111009,
            11.948034019563485,
            12.043562725218829,
            13.151388842073604,
            13.835026316249037,
            14.457199063944428,
            14.574691712292156,
            15.6005895618652,
            16.76249159147258,
            17.081248026395976,
            17.72351039934623,
            18.644598564758724,
            19.818705546055806,
            20.280279975238848,
            20.456566884102763,
            21.11958499646508,
            22.3669784824957,
            22.77546888097915,
            22.808642964841702,
            23.245343682391624,
            24.637267951544025,
            24.897754020447476,
            25.155589385233974,
            25.9281175910549
        ]
    },
    "born_effective_charge": {
        "avg_abs_trace": 2.8668099999999996,
        "tensors": [
            [
                [
                    1.37675,
                    -0.0,
                    0.06482
                ],
                [
                    2e-05,
                    1.1954,
                    1e-05
                ],
                [
                    0.01747,
                    -0.0,
                    1.372
                ]
            ],
            [
                [
                    1.37673,
                    -0.0,
                    0.06485
                ],
                [
                    -2e-05,
                    1.1954,
                    -1e-05
                ],
                [
                    0.01743,
                    -0.0,
                    1.37199
                ]
            ],
            [
                [
                    5.66581,
                    4e-05,
                    -0.16822
                ],
                [
                    0.0,
                    5.27,
                    0.0
                ],
                [
                    0.11831,
                    -1e-05,
                    4.37267
                ]
            ],
            [
                [
                    5.66581,
                    -4e-05,
                    -0.16822
                ],
                [
                    0.0,
                    5.27027,
                    0.0
                ],
                [
                    0.11831,
                    1e-05,
                    4.37267
                ]
            ],
            [
                [
                    4.82099,
                    -0.0,
                    0.00947
                ],
                [
                    4e-05,
                    5.77066,
                    0.00022
                ],
                [
                    -0.14949,
                    -0.0,
                    5.6539
                ]
            ],
            [
                [
                    4.82108,
                    -0.0,
                    0.0097
                ],
                [
                    -4e-05,
                    5.77066,
                    -0.00022
                ],
                [
                    -0.14956,
                    -0.0,
                    5.65359
                ]
            ],
            [
                [
                    4.37938,
                    7e-05,
                    0.30355
                ],
                [
                    0.0,
                    4.92233,
                    0.0
                ],
                [
                    0.12974,
                    -8e-05,
                    6.80271
                ]
            ],
            [
                [
                    4.37938,
                    -7e-05,
                    0.30355
                ],
                [
                    0.0,
                    4.92228,
                    0.0
                ],
                [
                    0.12974,
                    8e-05,
                    6.80271
                ]
            ],
            [
                [
                    -2.20296,
                    -0.2832,
                    -0.9684
                ],
                [
                    -0.60299,
                    -1.78631,
                    0.55011
                ],
                [
                    -1.19728,
                    0.57846,
                    -3.10688
                ]
            ],
            [
                [
                    -2.20288,
                    -0.28333,
                    -0.96828
                ],
                [
                    -0.6031,
                    -1.78661,
                    0.55008
                ],
                [
                    -1.19722,
                    0.57828,
                    -3.10667
                ]
            ],
            [
                [
                    -2.20288,
                    0.28333,
                    -0.96828
                ],
                [
                    0.60299,
                    -1.78631,
                    -0.55011
                ],
                [
                    -1.19722,
                    -0.57828,
                    -3.10667
                ]
            ],
            [
                [
                    -2.20296,
                    0.2832,
                    -0.9684
                ],
                [
                    0.6031,
                    -1.78661,
                    -0.55008
                ],
                [
                    -1.19728,
                    -0.57846,
                    -3.10688
                ]
            ],
            [
                [
                    -1.86255,
                    -1.00884,
                    1.0884
                ],
                [
                    -1.14964,
                    -1.78538,
                    0.90864
                ],
                [
                    1.22049,
                    1.00681,
                    -2.29849
                ]
            ],
            [
                [
                    -1.86246,
                    -1.0086,
                    1.08837
                ],
                [
                    -1.14977,
                    -1.78543,
                    0.90865
                ],
                [
                    1.22054,
                    1.00641,
                    -2.29841
                ]
            ],
            [
                [
                    -1.86246,
                    1.0086,
                    1.08837
                ],
                [
                    1.14964,
                    -1.78538,
                    -0.90864
                ],
                [
                    1.22054,
                    -1.00641,
                    -2.29841
                ]
            ],
            [
                [
                    -1.86255,
                    1.00884,
                    1.0884
                ],
                [
                    1.14977,
                    -1.78543,
                    -0.90865
                ],
                [
                    1.22049,
                    -1.00681,
                    -2.29849
                ]
            ],
            [
                [
                    -1.81346,
                    1.41881,
                    0.40701
                ],
                [
                    1.34132,
                    -2.90889,
                    -0.60604
                ],
                [
                    0.73125,
                    -0.93421,
                    -1.37309
                ]
            ],
            [
                [
                    -1.81348,
                    1.41889,
                    0.4071
                ],
                [
                    1.34076,
                    -2.90853,
                    -0.60592
                ],
                [
                    0.73106,
                    -0.93455,
                    -1.37336
                ]
            ],
            [
                [
                    -1.81348,
                    -1.41889,
                    0.4071
                ],
                [
                    -1.34132,
                    -2.90889,
                    0.60604
                ],
                [
                    0.73106,
                    0.93455,
                    -1.37336
                ]
            ],
            [
                [
                    -1.81346,
                    -1.41881,
                    0.40701
                ],
                [
                    -1.34076,
                    -2.90853,
                    0.60592
                ],
                [
                    0.73125,
                    0.93421,
                    -1.37309
                ]
            ],
            [
                [
                    -1.29102,
                    -0.0,
                    -0.35325
                ],
                [
                    -0.00012,
                    -2.19714,
                    -3e-05
                ],
                [
                    -0.27064,
                    -0.0,
                    -2.91415
                ]
            ],
            [
                [
                    -1.29068,
                    -0.0,
                    -0.35325
                ],
                [
                    0.00012,
                    -2.19714,
                    3e-05
                ],
                [
                    -0.27033,
                    -0.0,
                    -2.91404
                ]
            ],
            [
                [
                    -3.19443,
                    -0.0,
                    -0.91096
                ],
                [
                    -0.00018,
                    -2.00022,
                    -6e-05
                ],
                [
                    -1.35465,
                    -0.0,
                    -1.73022
                ]
            ],
            [
                [
                    -3.19421,
                    -0.0,
                    -0.91043
                ],
                [
                    0.00018,
                    -2.00022,
                    6e-05
                ],
                [
                    -1.354,
                    -0.0,
                    -1.73
                ]
            ]
        ]
    },
    "band_gap": 3.7595,
    "is_direct": false,
    "formula": "KLa(WO4)2"
}