{
    "mp_id": "mp-1214125",
    "nelements": 4,
    "nsites": 20,
    "elements": [
        "Ca",
        "Nb",
        "O",
        "Sc"
    ],
    "structure": {
        "@module": "pymatgen.core.structure",
        "@class": "Structure",
        "charge": null,
        "lattice": {
            "matrix": [
                [
                    5.47640566,
                    0.0,
                    0.00034438
                ],
                [
                    0.0,
                    5.66515411,
                    0.0
                ],
                [
                    -5.46131032,
                    0.0,
                    7.85047854
                ]
            ],
            "a": 5.47640567082805,
            "b": 5.66515411,
            "c": 9.56325905318574,
            "alpha": 90.0,
            "beta": 124.82141661984787,
            "gamma": 90.0,
            "volume": 243.5692553381404
        },
        "sites": [
            {
                "species": [
                    {
                        "element": "Ca",
                        "occu": 1
                    }
                ],
                "abc": [
                    0.76547765,
                    0.05336858,
                    0.25168259
                ],
                "xyz": [
                    2.817549408932171,
                    0.3023412303318638,
                    1.9760923868797255
                ],
                "label": "Ca",
                "properties": {}
            },
            {
                "species": [
                    {
                        "element": "Ca",
                        "occu": 1
                    }
                ],
                "abc": [
                    0.23452235,
                    0.94663142,
                    0.74831741
                ],
                "xyz": [
                    -2.8024540689321698,
                    5.362812879668136,
                    5.874730533120275
                ],
                "label": "Ca",
                "properties": {}
            },
            {
                "species": [
                    {
                        "element": "Ca",
                        "occu": 1
                    }
                ],
                "abc": [
                    0.23452235,
                    0.55336858,
                    0.24831741
                ],
                "xyz": [
                    -0.07179890893217,
                    3.1349182853318633,
                    1.9494912631202743
                ],
                "label": "Ca",
                "properties": {}
            },
            {
                "species": [
                    {
                        "element": "Ca",
                        "occu": 1
                    }
                ],
                "abc": [
                    0.76547765,
                    0.44663142,
                    0.75168259
                ],
                "xyz": [
                    0.0868942489321709,
                    2.5302358246681362,
                    5.901331656879726
                ],
                "label": "Ca",
                "properties": {}
            },
            {
                "species": [
                    {
                        "element": "Sc",
                        "occu": 1
                    }
                ],
                "abc": [
                    0.0,
                    0.5,
                    0.5
                ],
                "xyz": [
                    -2.73065516,
                    2.832577055,
                    3.92523927
                ],
                "label": "Sc",
                "properties": {}
            },
            {
                "species": [
                    {
                        "element": "Sc",
                        "occu": 1
                    }
                ],
                "abc": [
                    0.0,
                    0.0,
                    0.0
                ],
                "xyz": [
                    0.0,
                    0.0,
                    0.0
                ],
                "label": "Sc",
                "properties": {}
            },
            {
                "species": [
                    {
                        "element": "Nb",
                        "occu": 1
                    }
                ],
                "abc": [
                    0.5,
                    0.5,
                    0.0
                ],
                "xyz": [
                    2.73820283,
                    2.832577055,
                    0.00017219
                ],
                "label": "Nb",
                "properties": {}
            },
            {
                "species": [
                    {
                        "element": "Nb",
                        "occu": 1
                    }
                ],
                "abc": [
                    0.5,
                    0.0,
                    0.5
                ],
                "xyz": [
                    0.007547670000000117,
                    0.0,
                    3.92541146
                ],
                "label": "Nb",
                "properties": {}
            },
            {
                "species": [
                    {
                        "element": "O",
                        "occu": 1
                    }
                ],
                "abc": [
                    0.64261453,
                    0.4631449,
                    0.24537727
                ],
                "xyz": [
                    2.179136432345814,
                    2.623787233760539,
                    1.9265502959306273
                ],
                "label": "O",
                "properties": {}
            },
            {
                "species": [
                    {
                        "element": "O",
                        "occu": 1
                    }
                ],
                "abc": [
                    0.35738547,
                    0.5368551,
                    0.75462273
                ],
                "xyz": [
                    -2.1640410923458138,
                    3.041366876239461,
                    5.924272624069372
                ],
                "label": "O",
                "properties": {}
            },
            {
                "species": [
                    {
                        "element": "O",
                        "occu": 1
                    }
                ],
                "abc": [
                    0.35738547,
                    0.9631449,
                    0.25462273
                ],
                "xyz": [
                    0.5666140676541864,
                    5.456364288760539,
                    1.999033354069373
                ],
                "label": "O",
                "properties": {}
            },
            {
                "species": [
                    {
                        "element": "O",
                        "occu": 1
                    }
                ],
                "abc": [
                    0.64261453,
                    0.0368551,
                    0.74537727
                ],
                "xyz": [
                    -0.5515187276541864,
                    0.208789821239461,
                    5.851789565930627
                ],
                "label": "O",
                "properties": {}
            },
            {
                "species": [
                    {
                        "element": "O",
                        "occu": 1
                    }
                ],
                "abc": [
                    0.1515474,
                    0.80295987,
                    0.44788881
                ],
                "xyz": [
                    -1.6161247411472353,
                    4.5488914076955655,
                    3.51619368110475
                ],
                "label": "O",
                "properties": {}
            },
            {
                "species": [
                    {
                        "element": "O",
                        "occu": 1
                    }
                ],
                "abc": [
                    0.8484526,
                    0.19704013,
                    0.55211119
                ],
                "xyz": [
                    1.631220081147236,
                    1.1162627023044343,
                    4.334629238895251
                ],
                "label": "O",
                "properties": {}
            },
            {
                "species": [
                    {
                        "element": "O",
                        "occu": 1
                    }
                ],
                "abc": [
                    0.8484526,
                    0.30295987,
                    0.05211119
                ],
                "xyz": [
                    4.361875241147236,
                    1.7163143526955658,
                    0.4093899688952506
                ],
                "label": "O",
                "properties": {}
            },
            {
                "species": [
                    {
                        "element": "O",
                        "occu": 1
                    }
                ],
                "abc": [
                    0.1515474,
                    0.69704013,
                    0.94788881
                ],
                "xyz": [
                    -4.346779901147235,
                    3.948839757304434,
                    7.4414329511047494
                ],
                "label": "O",
                "properties": {}
            },
            {
                "species": [
                    {
                        "element": "O",
                        "occu": 1
                    }
                ],
                "abc": [
                    0.24915313,
                    0.29330279,
                    0.44351714
                ],
                "xyz": [
                    -1.0577211224401686,
                    1.6616055062429667,
                    3.481907593047085
                ],
                "label": "O",
                "properties": {}
            },
            {
                "species": [
                    {
                        "element": "O",
                        "occu": 1
                    }
                ],
                "abc": [
                    0.75084687,
                    0.70669721,
                    0.55648286
                ],
                "xyz": [
                    1.0728164624401693,
                    4.003548603757032,
                    4.368915326952915
                ],
                "label": "O",
                "properties": {}
            },
            {
                "species": [
                    {
                        "element": "O",
                        "occu": 1
                    }
                ],
                "abc": [
                    0.75084687,
                    0.79330279,
                    0.05648286
                ],
                "xyz": [
                    3.8034716224401697,
                    4.494182561242967,
                    0.443676056952915
                ],
                "label": "O",
                "properties": {}
            },
            {
                "species": [
                    {
                        "element": "O",
                        "occu": 1
                    }
                ],
                "abc": [
                    0.24915313,
                    0.20669721,
                    0.94351714
                ],
                "xyz": [
                    -3.788376282440169,
                    1.170971548757033,
                    7.4071468630470845
                ],
                "label": "O",
                "properties": {}
            }
        ]
    },
    "spacegroup": {
        "source": "spglib",
        "symbol": "P2_1/c",
        "number": 14,
        "point_group": "2/m",
        "crystal_system": "monoclinic",
        "hall": "-P 2ybc"
    },
    "dielectric": {
        "epsilon_ionic": [
            [
                23.89948086,
                -0.0,
                -0.2524943
            ],
            [
                -0.0,
                23.23162386,
                1e-08
            ],
            [
                -0.2524943,
                1e-08,
                32.6259016
            ]
        ],
        "epsilon_ionic_avg": 26.585668773333325,
        "epsilon_ionic_eig": [
            32.633201280830214,
            23.892181179169764,
            23.23162386
        ],
        "epsilon_electronic": [
            [
                4.95392936,
                0.0,
                0.04387038
            ],
            [
                0.0,
                5.02155525,
                0.0
            ],
            [
                0.04384446,
                0.0,
                4.92060795
            ]
        ],
        "epsilon_electronic_avg": 4.965364186666666,
        "epsilon_electronic_eig": [
            4.984184027877041,
            4.890353282122959,
            5.02155525
        ]
    },
    "phonon": {
        "lowest_freq": -0.05345034298565686,
        "frequency": [
            -0.05345034298565686,
            -0.03495574497624248,
            -0.022345696226806662,
            3.1596090785391038,
            3.5283528296991236,
            4.231885854834809,
            4.308920457208384,
            4.317951548589227,
            4.981360426409769,
            5.003687305825764,
            5.021338264928515,
            5.274205012813054,
            5.318356858642734,
            5.439460227857296,
            5.701071306874795,
            5.710306695786354,
            6.166700841325332,
            6.3193764392305845,
            6.639261194573654,
            6.70100775283201,
            6.9619712726526,
            7.229162846513307,
            7.292816448292149,
            7.429427911083976,
            7.59658100888812,
            7.695135860100834,
            8.217565081370784,
            8.292535630032644,
            8.306402278961267,
            8.807305266469823,
            9.001754431384478,
            9.119837566340246,
            9.488505967952925,
            9.650446239098239,
            9.910924908487189,
            10.776449831874315,
            11.193758192773045,
            11.254297168879535,
            11.284647350488868,
            11.616108811728305,
            11.631501431695606,
            12.7326746391244,
            12.783541876559598,
            12.943433012185977,
            12.96470438009652,
            13.104586163043034,
            13.863054979548012,
            14.084607745307654,
            15.301337894611429,
            15.640832233159529,
            16.00229534936763,
            16.084342573075595,
            16.443970583242947,
            16.513350489835116,
            16.656103222012725,
            16.672816465069154,
            16.885135939200108,
            21.348455075661658,
            22.837134945893975,
            23.382384511606094
        ]
    },
    "born_effective_charge": {
        "avg_abs_trace": 3.304939666666667,
        "tensors": [
            [
                [
                    2.4656,
                    -0.1325,
                    0.09216
                ],
                [
                    -0.20322,
                    2.41312,
                    -0.04619
                ],
                [
                    -0.04958,
                    -0.14882,
                    2.3419
                ]
            ],
            [
                [
                    2.46564,
                    -0.13254,
                    0.09212
                ],
                [
                    -0.20284,
                    2.41313,
                    -0.04602
                ],
                [
                    -0.04953,
                    -0.14877,
                    2.34194
                ]
            ],
            [
                [
                    2.46564,
                    0.13254,
                    0.09212
                ],
                [
                    0.20322,
                    2.41312,
                    0.04619
                ],
                [
                    -0.04953,
                    0.14877,
                    2.34194
                ]
            ],
            [
                [
                    2.4656,
                    0.1325,
                    0.09216
                ],
                [
                    0.20284,
                    2.41313,
                    0.04602
                ],
                [
                    -0.04958,
                    0.14882,
                    2.3419
                ]
            ],
            [
                [
                    4.83886,
                    0.51881,
                    -0.74384
                ],
                [
                    -0.41463,
                    5.06507,
                    0.09522
                ],
                [
                    0.61884,
                    0.31031,
                    4.88099
                ]
            ],
            [
                [
                    4.83886,
                    -0.51881,
                    -0.74384
                ],
                [
                    0.41463,
                    5.06507,
                    -0.09522
                ],
                [
                    0.61884,
                    -0.31031,
                    4.88099
                ]
            ],
            [
                [
                    6.77467,
                    0.4905,
                    0.65159
                ],
                [
                    -0.18746,
                    6.83224,
                    -0.0941
                ],
                [
                    -0.36017,
                    -0.21969,
                    6.74093
                ]
            ],
            [
                [
                    6.77467,
                    -0.4905,
                    0.65159
                ],
                [
                    0.18746,
                    6.83224,
                    0.0941
                ],
                [
                    -0.36017,
                    0.21969,
                    6.74093
                ]
            ],
            [
                [
                    -2.03532,
                    0.02244,
                    0.28677
                ],
                [
                    0.16199,
                    -1.76221,
                    0.12812
                ],
                [
                    0.2907,
                    0.14432,
                    -4.46534
                ]
            ],
            [
                [
                    -2.03531,
                    0.02243,
                    0.28679
                ],
                [
                    0.16193,
                    -1.76223,
                    0.12809
                ],
                [
                    0.29072,
                    0.14433,
                    -4.46532
                ]
            ],
            [
                [
                    -2.03531,
                    -0.02243,
                    0.28679
                ],
                [
                    -0.16199,
                    -1.76221,
                    -0.12812
                ],
                [
                    0.29072,
                    -0.14433,
                    -4.46532
                ]
            ],
            [
                [
                    -2.03532,
                    -0.02244,
                    0.28677
                ],
                [
                    -0.16193,
                    -1.76223,
                    -0.12809
                ],
                [
                    0.2907,
                    -0.14432,
                    -4.46534
                ]
            ],
            [
                [
                    -3.32278,
                    -1.29314,
                    -0.17731
                ],
                [
                    -1.32439,
                    -3.07577,
                    -0.07372
                ],
                [
                    -0.19926,
                    -0.02594,
                    -1.837
                ]
            ],
            [
                [
                    -3.32277,
                    -1.29306,
                    -0.17721
                ],
                [
                    -1.32448,
                    -3.07555,
                    -0.07387
                ],
                [
                    -0.1993,
                    -0.02591,
                    -1.83698
                ]
            ],
            [
                [
                    -3.32277,
                    1.29306,
                    -0.17721
                ],
                [
                    1.32439,
                    -3.07577,
                    0.07372
                ],
                [
                    -0.1993,
                    0.02591,
                    -1.83698
                ]
            ],
            [
                [
                    -3.32278,
                    1.29314,
                    -0.17731
                ],
                [
                    1.32448,
                    -3.07555,
                    0.07387
                ],
                [
                    -0.19926,
                    0.02594,
                    -1.837
                ]
            ],
            [
                [
                    -2.91425,
                    1.30526,
                    -0.15555
                ],
                [
                    1.35347,
                    -3.52404,
                    0.32394
                ],
                [
                    -0.17122,
                    0.30647,
                    -1.85052
                ]
            ],
            [
                [
                    -2.91433,
                    1.30534,
                    -0.15551
                ],
                [
                    1.35385,
                    -3.52377,
                    0.32357
                ],
                [
                    -0.1712,
                    0.30641,
                    -1.85061
                ]
            ],
            [
                [
                    -2.91433,
                    -1.30534,
                    -0.15551
                ],
                [
                    -1.35347,
                    -3.52404,
                    -0.32394
                ],
                [
                    -0.1712,
                    -0.30641,
                    -1.85061
                ]
            ],
            [
                [
                    -2.91425,
                    -1.30526,
                    -0.15555
                ],
                [
                    -1.35385,
                    -3.52377,
                    -0.32357
                ],
                [
                    -0.17122,
                    -0.30647,
                    -1.85052
                ]
            ]
        ]
    },
    "band_gap": 3.3709999999999996,
    "is_direct": true,
    "formula": "Ca2ScNbO6"
}