{
    "mp_id": "mp-17183",
    "nelements": 4,
    "nsites": 32,
    "elements": [
        "Be",
        "Na",
        "O",
        "Si"
    ],
    "structure": {
        "@module": "pymatgen.core.structure",
        "@class": "Structure",
        "charge": null,
        "lattice": {
            "matrix": [
                [
                    6.99159544,
                    0.0,
                    -0.00017148
                ],
                [
                    0.0,
                    4.93323932,
                    0.0
                ],
                [
                    -0.0046024,
                    0.0,
                    9.90396361
                ]
            ],
            "a": 6.99159544210291,
            "b": 4.93323932,
            "c": 9.903964679374115,
            "alpha": 90.0,
            "beta": 90.02803077958099,
            "gamma": 90.0,
            "volume": 341.5997198134601
        },
        "sites": [
            {
                "species": [
                    {
                        "element": "Na",
                        "occu": 1
                    }
                ],
                "abc": [
                    0.99855947,
                    0.70875042,
                    0.60901905
                ],
                "xyz": [
                    6.978720887745097,
                    3.4964354400105147,
                    6.031531276018854
                ],
                "label": "Na",
                "properties": {}
            },
            {
                "species": [
                    {
                        "element": "Na",
                        "occu": 1
                    }
                ],
                "abc": [
                    0.73507115,
                    0.18337328,
                    0.64086265
                ],
                "xyz": [
                    5.1363705941551965,
                    0.9046242751333696,
                    6.346954314607364
                ],
                "label": "Na",
                "properties": {}
            },
            {
                "species": [
                    {
                        "element": "Na",
                        "occu": 1
                    }
                ],
                "abc": [
                    0.26492885,
                    0.68337328,
                    0.85913735
                ],
                "xyz": [
                    1.848321245844804,
                    3.3712439351333696,
                    8.508819620392636
                ],
                "label": "Na",
                "properties": {}
            },
            {
                "species": [
                    {
                        "element": "Na",
                        "occu": 1
                    }
                ],
                "abc": [
                    0.26492885,
                    0.81662672,
                    0.35913735
                ],
                "xyz": [
                    1.850622445844804,
                    4.028615044866631,
                    3.5568378153926354
                ],
                "label": "Na",
                "properties": {}
            },
            {
                "species": [
                    {
                        "element": "Na",
                        "occu": 1
                    }
                ],
                "abc": [
                    0.73507115,
                    0.31662672,
                    0.14086265
                ],
                "xyz": [
                    5.138671794155196,
                    1.5619953848666304,
                    1.3949725096073646
                ],
                "label": "Na",
                "properties": {}
            },
            {
                "species": [
                    {
                        "element": "Na",
                        "occu": 1
                    }
                ],
                "abc": [
                    0.00144053,
                    0.20875042,
                    0.89098095
                ],
                "xyz": [
                    0.0059709522549032,
                    1.0298157800105143,
                    8.824242658981145
                ],
                "label": "Na",
                "properties": {}
            },
            {
                "species": [
                    {
                        "element": "Na",
                        "occu": 1
                    }
                ],
                "abc": [
                    0.99855947,
                    0.79124958,
                    0.10901905
                ],
                "xyz": [
                    6.981022087745097,
                    3.9034235399894857,
                    1.079549471018855
                ],
                "label": "Na",
                "properties": {}
            },
            {
                "species": [
                    {
                        "element": "Na",
                        "occu": 1
                    }
                ],
                "abc": [
                    0.00144053,
                    0.29124958,
                    0.39098095
                ],
                "xyz": [
                    0.0082721522549032,
                    1.4368038799894858,
                    3.8722608539811447
                ],
                "label": "Na",
                "properties": {}
            },
            {
                "species": [
                    {
                        "element": "Be",
                        "occu": 1
                    }
                ],
                "abc": [
                    0.50091889,
                    0.34105028,
                    0.41183517
                ],
                "xyz": [
                    3.5003267969474536,
                    1.6824826513930096,
                    4.078714639426907
                ],
                "label": "Be",
                "properties": {}
            },
            {
                "species": [
                    {
                        "element": "Be",
                        "occu": 1
                    }
                ],
                "abc": [
                    0.49908111,
                    0.84105028,
                    0.08816483
                ],
                "xyz": [
                    3.4889674430525464,
                    4.14910231139301,
                    0.8730956855730935
                ],
                "label": "Be",
                "properties": {}
            },
            {
                "species": [
                    {
                        "element": "Be",
                        "occu": 1
                    }
                ],
                "abc": [
                    0.49908111,
                    0.65894972,
                    0.58816483
                ],
                "xyz": [
                    3.4866662430525466,
                    3.25075666860699,
                    5.825077490573093
                ],
                "label": "Be",
                "properties": {}
            },
            {
                "species": [
                    {
                        "element": "Be",
                        "occu": 1
                    }
                ],
                "abc": [
                    0.50091889,
                    0.15894972,
                    0.91183517
                ],
                "xyz": [
                    3.498025596947454,
                    0.7841370086069904,
                    9.030696444426907
                ],
                "label": "Be",
                "properties": {}
            },
            {
                "species": [
                    {
                        "element": "Si",
                        "occu": 1
                    }
                ],
                "abc": [
                    0.27608555,
                    0.34326625,
                    0.15835937
                ],
                "xyz": [
                    1.9295496392654043,
                    1.69341456172895,
                    1.5683380946324117
                ],
                "label": "Si",
                "properties": {}
            },
            {
                "species": [
                    {
                        "element": "Si",
                        "occu": 1
                    }
                ],
                "abc": [
                    0.27608555,
                    0.15673375,
                    0.65835937
                ],
                "xyz": [
                    1.9272484392654043,
                    0.7732050982710501,
                    6.520319899632412
                ],
                "label": "Si",
                "properties": {}
            },
            {
                "species": [
                    {
                        "element": "Si",
                        "occu": 1
                    }
                ],
                "abc": [
                    0.72391445,
                    0.65673375,
                    0.84164063
                ],
                "xyz": [
                    5.057443400734596,
                    3.23982475827105,
                    8.335454035367588
                ],
                "label": "Si",
                "properties": {}
            },
            {
                "species": [
                    {
                        "element": "Si",
                        "occu": 1
                    }
                ],
                "abc": [
                    0.72391445,
                    0.84326625,
                    0.34164063
                ],
                "xyz": [
                    5.0597446007345965,
                    4.16003422172895,
                    3.3834722303675884
                ],
                "label": "Si",
                "properties": {}
            },
            {
                "species": [
                    {
                        "element": "O",
                        "occu": 1
                    }
                ],
                "abc": [
                    0.44049571,
                    0.33098152,
                    0.57496376
                ],
                "xyz": [
                    3.0771215841665382,
                    1.6328110486573664,
                    5.694344619904423
                ],
                "label": "O",
                "properties": {}
            },
            {
                "species": [
                    {
                        "element": "O",
                        "occu": 1
                    }
                ],
                "abc": [
                    0.6879726,
                    0.33426158,
                    0.87738751
                ],
                "xyz": [
                    4.8059880047289205,
                    1.6489923696213258,
                    8.689495997367063
                ],
                "label": "O",
                "properties": {}
            },
            {
                "species": [
                    {
                        "element": "O",
                        "occu": 1
                    }
                ],
                "abc": [
                    0.3120274,
                    0.83426158,
                    0.62261249
                ],
                "xyz": [
                    2.1787038352710804,
                    4.115612029621325,
                    6.166277937632937
                ],
                "label": "O",
                "properties": {}
            },
            {
                "species": [
                    {
                        "element": "O",
                        "occu": 1
                    }
                ],
                "abc": [
                    0.3120274,
                    0.66573842,
                    0.12261249
                ],
                "xyz": [
                    2.18100503527108,
                    3.284246950378675,
                    1.214296132632937
                ],
                "label": "O",
                "properties": {}
            },
            {
                "species": [
                    {
                        "element": "O",
                        "occu": 1
                    }
                ],
                "abc": [
                    0.6879726,
                    0.16573842,
                    0.37738751
                ],
                "xyz": [
                    4.808289204728921,
                    0.8176272903786744,
                    3.737514192367063
                ],
                "label": "O",
                "properties": {}
            },
            {
                "species": [
                    {
                        "element": "O",
                        "occu": 1
                    }
                ],
                "abc": [
                    0.05679135,
                    0.26235211,
                    0.1233403
                ],
                "xyz": [
                    0.396494482294724,
                    1.2942457447369653,
                    1.221548104265785
                ],
                "label": "O",
                "properties": {}
            },
            {
                "species": [
                    {
                        "element": "O",
                        "occu": 1
                    }
                ],
                "abc": [
                    0.55950429,
                    0.83098152,
                    0.92503624
                ],
                "xyz": [
                    3.9075702558334617,
                    4.0994307086573665,
                    9.161429315095576
                ],
                "label": "O",
                "properties": {}
            },
            {
                "species": [
                    {
                        "element": "O",
                        "occu": 1
                    }
                ],
                "abc": [
                    0.55950429,
                    0.66901848,
                    0.42503624
                ],
                "xyz": [
                    3.909871455833462,
                    3.3004282713426334,
                    4.209447510095577
                ],
                "label": "O",
                "properties": {}
            },
            {
                "species": [
                    {
                        "element": "O",
                        "occu": 1
                    }
                ],
                "abc": [
                    0.44049571,
                    0.16901848,
                    0.07496376
                ],
                "xyz": [
                    3.0794227841665385,
                    0.8338086113426336,
                    0.7423628149044229
                ],
                "label": "O",
                "properties": {}
            },
            {
                "species": [
                    {
                        "element": "O",
                        "occu": 1
                    }
                ],
                "abc": [
                    0.31484591,
                    0.21045368,
                    0.82048535
                ],
                "xyz": [
                    2.1974990268838104,
                    1.0382183692146976,
                    8.126003059161466
                ],
                "label": "O",
                "properties": {}
            },
            {
                "species": [
                    {
                        "element": "O",
                        "occu": 1
                    }
                ],
                "abc": [
                    0.68515409,
                    0.71045368,
                    0.67951465
                ],
                "xyz": [
                    4.7871928131161905,
                    3.5048380292146977,
                    6.7297708758385335
                ],
                "label": "O",
                "properties": {}
            },
            {
                "species": [
                    {
                        "element": "O",
                        "occu": 1
                    }
                ],
                "abc": [
                    0.68515409,
                    0.78954632,
                    0.17951465
                ],
                "xyz": [
                    4.78949401311619,
                    3.8950209507853026,
                    1.7777890708385333
                ],
                "label": "O",
                "properties": {}
            },
            {
                "species": [
                    {
                        "element": "O",
                        "occu": 1
                    }
                ],
                "abc": [
                    0.94320865,
                    0.73764789,
                    0.8766597
                ],
                "xyz": [
                    6.590498557705276,
                    3.6389935752630347,
                    8.682244025734215
                ],
                "label": "O",
                "properties": {}
            },
            {
                "species": [
                    {
                        "element": "O",
                        "occu": 1
                    }
                ],
                "abc": [
                    0.94320865,
                    0.76235211,
                    0.3766597
                ],
                "xyz": [
                    6.592799757705276,
                    3.7608654047369656,
                    3.730262220734215
                ],
                "label": "O",
                "properties": {}
            },
            {
                "species": [
                    {
                        "element": "O",
                        "occu": 1
                    }
                ],
                "abc": [
                    0.05679135,
                    0.23764789,
                    0.6233403
                ],
                "xyz": [
                    0.394193282294724,
                    1.1723739152630348,
                    6.173529909265784
                ],
                "label": "O",
                "properties": {}
            },
            {
                "species": [
                    {
                        "element": "O",
                        "occu": 1
                    }
                ],
                "abc": [
                    0.31484591,
                    0.28954632,
                    0.32048535
                ],
                "xyz": [
                    2.1998002268838106,
                    1.4284012907853025,
                    3.1740212541614667
                ],
                "label": "O",
                "properties": {}
            }
        ]
    },
    "spacegroup": {
        "source": "spglib",
        "symbol": "P2_1/c",
        "number": 14,
        "point_group": "2/m",
        "crystal_system": "monoclinic",
        "hall": "-P 2ybc"
    },
    "dielectric": {
        "epsilon_ionic": [
            [
                2.30581189,
                0.0,
                -0.22197219
            ],
            [
                0.0,
                4.77479339,
                -0.0
            ],
            [
                -0.22197219,
                -0.0,
                5.50437713
            ]
        ],
        "epsilon_ionic_avg": 4.194994136666667,
        "epsilon_ionic_eig": [
            2.290481072744054,
            5.519707947255946,
            4.77479339
        ],
        "epsilon_electronic": [
            [
                2.54698882,
                0.0,
                -0.01305811
            ],
            [
                0.0,
                2.59199113,
                0.0
            ],
            [
                -0.01305858,
                0.0,
                2.58697216
            ]
        ],
        "epsilon_electronic_avg": 2.57531737,
        "epsilon_electronic_eig": [
            2.5431018961663443,
            2.590859083833656,
            2.59199113
        ]
    },
    "phonon": {
        "lowest_freq": -0.18722486662461876,
        "frequency": [
            -0.18722486662461876,
            -0.06362296172121361,
            -0.03240823575529393,
            2.842304291327631,
            3.294871462072218,
            3.607986222700599,
            3.7507383851392384,
            3.9545401507524507,
            4.020576161381612,
            4.041530978141269,
            4.603338059405712,
            4.61735345384625,
            4.622683336611818,
            5.026745159449605,
            5.053657726907579,
            5.059685020029515,
            5.182745054668814,
            5.348909343177089,
            5.475539197394496,
            5.635398326695761,
            5.645327115159415,
            5.80515167178695,
            5.818525024337426,
            5.9647142372068975,
            5.968143232693202,
            5.981957429831141,
            6.136729450457403,
            6.390690311672943,
            6.5536714164023095,
            6.738091139893083,
            7.066618389885428,
            7.209962818096252,
            7.308391232327935,
            7.536036755956539,
            7.561669402534693,
            7.715464480423086,
            8.385665231536121,
            8.636305704454642,
            8.64756692931947,
            8.648465991135176,
            8.766614461321566,
            8.894318189262659,
            9.050394719122316,
            9.377818773880284,
            9.403476675297881,
            9.933660125748387,
            10.01787594809446,
            10.06958900128516,
            10.805259279186515,
            11.39424563064529,
            11.751531525822003,
            12.106081907213648,
            12.592655814075554,
            12.728359769802442,
            13.357640868024635,
            13.40317109401785,
            13.413432496907276,
            14.028105096976374,
            14.199708034583091,
            14.55594238501431,
            14.668884706751843,
            15.274336244194663,
            15.438661798013593,
            15.76309274928195,
            16.27578003265299,
            16.364375929876683,
            16.747330388363142,
            17.017282171321423,
            17.131260656453655,
            17.179451928059112,
            20.501788690740465,
            20.934101324690563,
            21.156132934016235,
            21.54521907421724,
            21.89886053331585,
            22.44165037985547,
            23.354926925223314,
            23.630415078431202,
            24.18041516672703,
            24.8525333306071,
            26.044706718294506,
            26.251578319399282,
            26.53867123639297,
            26.70342596578813,
            26.80816199324617,
            26.887653754676982,
            27.224042712565858,
            27.521858732850866,
            27.58100102736372,
            27.946085757767754,
            28.090248873880707,
            28.661671668118746,
            28.665448656238993,
            28.99185571369254,
            30.278203734266267,
            30.762356868963913
        ]
    },
    "born_effective_charge": {
        "avg_abs_trace": 1.6812535416666665,
        "tensors": [
            [
                [
                    1.03878,
                    0.00906,
                    0.00097
                ],
                [
                    0.03673,
                    0.99867,
                    -0.01621
                ],
                [
                    -0.01869,
                    -0.01016,
                    1.0011
                ]
            ],
            [
                [
                    1.05428,
                    -0.00802,
                    -0.00419
                ],
                [
                    -0.02,
                    1.06485,
                    0.05538
                ],
                [
                    0.00414,
                    0.02287,
                    1.07574
                ]
            ],
            [
                [
                    1.05428,
                    0.00801,
                    -0.00419
                ],
                [
                    0.02,
                    1.06485,
                    -0.05538
                ],
                [
                    0.00415,
                    -0.02287,
                    1.07574
                ]
            ],
            [
                [
                    1.05428,
                    -0.00801,
                    -0.00419
                ],
                [
                    -0.01998,
                    1.06485,
                    0.05538
                ],
                [
                    0.00415,
                    0.02287,
                    1.07574
                ]
            ],
            [
                [
                    1.05428,
                    0.00802,
                    -0.00419
                ],
                [
                    0.01998,
                    1.06485,
                    -0.05538
                ],
                [
                    0.00414,
                    -0.02287,
                    1.07574
                ]
            ],
            [
                [
                    1.03878,
                    -0.00907,
                    0.00096
                ],
                [
                    -0.03673,
                    0.99867,
                    0.01621
                ],
                [
                    -0.01868,
                    0.01016,
                    1.0011
                ]
            ],
            [
                [
                    1.03878,
                    -0.00906,
                    0.00097
                ],
                [
                    -0.03671,
                    0.99866,
                    0.01621
                ],
                [
                    -0.01869,
                    0.01016,
                    1.0011
                ]
            ],
            [
                [
                    1.03878,
                    0.00907,
                    0.00096
                ],
                [
                    0.03671,
                    0.99866,
                    -0.01621
                ],
                [
                    -0.01868,
                    -0.01016,
                    1.0011
                ]
            ],
            [
                [
                    1.71289,
                    0.05004,
                    -0.06343
                ],
                [
                    -0.18823,
                    1.85002,
                    0.14832
                ],
                [
                    0.11064,
                    0.16979,
                    1.90701
                ]
            ],
            [
                [
                    1.7129,
                    -0.05002,
                    -0.06342
                ],
                [
                    0.18823,
                    1.85002,
                    -0.14832
                ],
                [
                    0.11062,
                    -0.16979,
                    1.90702
                ]
            ],
            [
                [
                    1.7129,
                    0.05002,
                    -0.06342
                ],
                [
                    -0.18826,
                    1.85012,
                    0.14835
                ],
                [
                    0.11062,
                    0.16979,
                    1.90702
                ]
            ],
            [
                [
                    1.71289,
                    -0.05004,
                    -0.06343
                ],
                [
                    0.18826,
                    1.85012,
                    -0.14835
                ],
                [
                    0.11064,
                    -0.16979,
                    1.90701
                ]
            ],
            [
                [
                    2.88656,
                    0.0863,
                    0.08118
                ],
                [
                    -0.06273,
                    2.82051,
                    0.03543
                ],
                [
                    -0.0769,
                    0.01396,
                    2.76457
                ]
            ],
            [
                [
                    2.88656,
                    -0.0863,
                    0.08118
                ],
                [
                    0.06291,
                    2.82057,
                    -0.03555
                ],
                [
                    -0.0769,
                    -0.01396,
                    2.76457
                ]
            ],
            [
                [
                    2.88653,
                    0.08626,
                    0.08119
                ],
                [
                    -0.06291,
                    2.82057,
                    0.03555
                ],
                [
                    -0.07692,
                    0.01397,
                    2.76455
                ]
            ],
            [
                [
                    2.88653,
                    -0.08626,
                    0.08119
                ],
                [
                    0.06273,
                    2.82051,
                    -0.03543
                ],
                [
                    -0.07692,
                    -0.01397,
                    2.76455
                ]
            ],
            [
                [
                    -1.51072,
                    -0.44098,
                    0.40955
                ],
                [
                    -0.44557,
                    -1.88896,
                    0.20966
                ],
                [
                    0.42827,
                    0.20531,
                    -1.88172
                ]
            ],
            [
                [
                    -1.56262,
                    -0.37108,
                    0.08443
                ],
                [
                    -0.46573,
                    -2.20236,
                    0.223
                ],
                [
                    0.11993,
                    0.25799,
                    -1.28959
                ]
            ],
            [
                [
                    -1.56257,
                    0.37099,
                    0.08443
                ],
                [
                    0.46573,
                    -2.20236,
                    -0.223
                ],
                [
                    0.11986,
                    -0.25799,
                    -1.28957
                ]
            ],
            [
                [
                    -1.56257,
                    -0.37099,
                    0.08443
                ],
                [
                    -0.46527,
                    -2.20227,
                    0.22272
                ],
                [
                    0.11986,
                    0.25799,
                    -1.28957
                ]
            ],
            [
                [
                    -1.56262,
                    0.37108,
                    0.08443
                ],
                [
                    0.46527,
                    -2.20227,
                    -0.22272
                ],
                [
                    0.11993,
                    -0.25799,
                    -1.28959
                ]
            ],
            [
                [
                    -2.05017,
                    -0.17282,
                    -0.12778
                ],
                [
                    -0.14825,
                    -1.38791,
                    -0.02048
                ],
                [
                    -0.09903,
                    -0.02139,
                    -1.36914
                ]
            ],
            [
                [
                    -1.5107,
                    0.44107,
                    0.40948
                ],
                [
                    0.44557,
                    -1.88896,
                    -0.20966
                ],
                [
                    0.42836,
                    -0.20535,
                    -1.88173
                ]
            ],
            [
                [
                    -1.5107,
                    -0.44107,
                    0.40948
                ],
                [
                    -0.44517,
                    -1.88881,
                    0.20946
                ],
                [
                    0.42836,
                    0.20535,
                    -1.88173
                ]
            ],
            [
                [
                    -1.51072,
                    0.44098,
                    0.40955
                ],
                [
                    0.44517,
                    -1.88881,
                    -0.20946
                ],
                [
                    0.42827,
                    -0.20531,
                    -1.88172
                ]
            ],
            [
                [
                    -1.56911,
                    0.05087,
                    -0.38079
                ],
                [
                    -0.01795,
                    -1.25503,
                    -0.06259
                ],
                [
                    -0.46831,
                    -0.05982,
                    -2.20794
                ]
            ],
            [
                [
                    -1.56906,
                    -0.0509,
                    -0.38062
                ],
                [
                    0.01795,
                    -1.25503,
                    0.06259
                ],
                [
                    -0.46837,
                    0.05981,
                    -2.20801
                ]
            ],
            [
                [
                    -1.56906,
                    0.0509,
                    -0.38062
                ],
                [
                    -0.01786,
                    -1.2551,
                    -0.06269
                ],
                [
                    -0.46837,
                    -0.05981,
                    -2.20801
                ]
            ],
            [
                [
                    -2.05004,
                    -0.17276,
                    -0.12777
                ],
                [
                    -0.14819,
                    -1.38782,
                    -0.02045
                ],
                [
                    -0.09907,
                    -0.0214,
                    -1.36914
                ]
            ],
            [
                [
                    -2.05004,
                    0.17276,
                    -0.12777
                ],
                [
                    0.14825,
                    -1.38791,
                    0.02048
                ],
                [
                    -0.09907,
                    0.0214,
                    -1.36914
                ]
            ],
            [
                [
                    -2.05017,
                    0.17282,
                    -0.12778
                ],
                [
                    0.14819,
                    -1.38782,
                    0.02045
                ],
                [
                    -0.09903,
                    0.02139,
                    -1.36914
                ]
            ],
            [
                [
                    -1.56911,
                    -0.05087,
                    -0.38079
                ],
                [
                    0.01786,
                    -1.2551,
                    0.06269
                ],
                [
                    -0.46831,
                    0.05982,
                    -2.20794
                ]
            ]
        ]
    },
    "band_gap": 4.718400000000001,
    "is_direct": false,
    "formula": "Na2BeSiO4"
}