{
    "mp_id": "mp-13744",
    "nelements": 3,
    "nsites": 14,
    "elements": [
        "Ga",
        "O",
        "Rb"
    ],
    "structure": {
        "@module": "pymatgen.core.structure",
        "@class": "Structure",
        "charge": null,
        "lattice": {
            "matrix": [
                [
                    3.68294503,
                    -5.71518566,
                    0.00010531
                ],
                [
                    3.68294503,
                    5.71518566,
                    0.00010531
                ],
                [
                    -1.57863259,
                    0.0,
                    6.57445984
                ]
            ],
            "a": 6.799075763172634,
            "b": 6.799075763172634,
            "c": 6.761331454823298,
            "alpha": 97.26489673112654,
            "beta": 97.26489673112654,
            "gamma": 114.40341123620762,
            "volume": 276.76975818344084
        },
        "sites": [
            {
                "species": [
                    {
                        "element": "Rb",
                        "occu": 1
                    }
                ],
                "abc": [
                    0.62789875,
                    0.62789875,
                    0.34648946
                ],
                "xyz": [
                    4.078053607663923,
                    0.0,
                    2.2781132877880115
                ],
                "label": "Rb",
                "properties": {}
            },
            {
                "species": [
                    {
                        "element": "Rb",
                        "occu": 1
                    }
                ],
                "abc": [
                    0.37210125,
                    0.37210125,
                    0.65351054
                ],
                "xyz": [
                    1.7092038623360766,
                    0.0,
                    4.296557172211989
                ],
                "label": "Rb",
                "properties": {}
            },
            {
                "species": [
                    {
                        "element": "Rb",
                        "occu": 1
                    }
                ],
                "abc": [
                    0.19402834,
                    0.80597166,
                    0.5
                ],
                "xyz": [
                    2.893628735,
                    3.497369687196792,
                    3.28733523
                ],
                "label": "Rb",
                "properties": {}
            },
            {
                "species": [
                    {
                        "element": "Rb",
                        "occu": 1
                    }
                ],
                "abc": [
                    0.80597166,
                    0.19402834,
                    0.5
                ],
                "xyz": [
                    2.893628735,
                    -3.497369687196792,
                    3.28733523
                ],
                "label": "Rb",
                "properties": {}
            },
            {
                "species": [
                    {
                        "element": "Rb",
                        "occu": 1
                    }
                ],
                "abc": [
                    0.26056452,
                    0.73943548,
                    0.0
                ],
                "xyz": [
                    3.68294503,
                    2.736836443582434,
                    0.00010531
                ],
                "label": "Rb",
                "properties": {}
            },
            {
                "species": [
                    {
                        "element": "Rb",
                        "occu": 1
                    }
                ],
                "abc": [
                    0.73943548,
                    0.26056452,
                    0.0
                ],
                "xyz": [
                    3.68294503,
                    -2.736836443582434,
                    0.00010531
                ],
                "label": "Rb",
                "properties": {}
            },
            {
                "species": [
                    {
                        "element": "Ga",
                        "occu": 1
                    }
                ],
                "abc": [
                    0.16580568,
                    0.16580568,
                    0.14884294
                ],
                "xyz": [
                    0.9863380943281264,
                    0.0,
                    0.9785968534898513
                ],
                "label": "Ga",
                "properties": {}
            },
            {
                "species": [
                    {
                        "element": "Ga",
                        "occu": 1
                    }
                ],
                "abc": [
                    0.83419432,
                    0.83419432,
                    0.85115706
                ],
                "xyz": [
                    4.8009193756718735,
                    0.0,
                    5.596073606510149
                ],
                "label": "Ga",
                "properties": {}
            },
            {
                "species": [
                    {
                        "element": "O",
                        "occu": 1
                    }
                ],
                "abc": [
                    0.09760487,
                    0.09760487,
                    0.85408724
                ],
                "xyz": [
                    -0.6293432100265595,
                    0.0,
                    5.615182816774161
                ],
                "label": "O",
                "properties": {}
            },
            {
                "species": [
                    {
                        "element": "O",
                        "occu": 1
                    }
                ],
                "abc": [
                    0.90239513,
                    0.90239513,
                    0.14591276
                ],
                "xyz": [
                    6.41660068002656,
                    0.0,
                    0.959487643225839
                ],
                "label": "O",
                "properties": {}
            },
            {
                "species": [
                    {
                        "element": "O",
                        "occu": 1
                    }
                ],
                "abc": [
                    0.41887964,
                    0.15297475,
                    0.26672048
                ],
                "xyz": [
                    1.6850546413857386,
                    -1.5196958142518775,
                    1.7536033062513339
                ],
                "label": "O",
                "properties": {}
            },
            {
                "species": [
                    {
                        "element": "O",
                        "occu": 1
                    }
                ],
                "abc": [
                    0.84702525,
                    0.58112036,
                    0.73327952
                ],
                "xyz": [
                    4.102202828614262,
                    -1.5196958142518775,
                    4.8210671537486665
                ],
                "label": "O",
                "properties": {}
            },
            {
                "species": [
                    {
                        "element": "O",
                        "occu": 1
                    }
                ],
                "abc": [
                    0.58112036,
                    0.84702525,
                    0.73327952
                ],
                "xyz": [
                    4.102202828614262,
                    1.5196958142518775,
                    4.8210671537486665
                ],
                "label": "O",
                "properties": {}
            },
            {
                "species": [
                    {
                        "element": "O",
                        "occu": 1
                    }
                ],
                "abc": [
                    0.15297475,
                    0.41887964,
                    0.26672048
                ],
                "xyz": [
                    1.6850546413857386,
                    1.5196958142518775,
                    1.7536033062513339
                ],
                "label": "O",
                "properties": {}
            }
        ]
    },
    "spacegroup": {
        "source": "spglib",
        "symbol": "C2/m",
        "number": 12,
        "point_group": "2/m",
        "crystal_system": "monoclinic",
        "hall": "-C 2y"
    },
    "dielectric": {
        "epsilon_ionic": [
            [
                5.60230685,
                1e-08,
                -0.32793397
            ],
            [
                1e-08,
                7.70450994,
                -0.0
            ],
            [
                -0.32793397,
                -0.0,
                6.28298815
            ]
        ],
        "epsilon_ionic_avg": 6.529934979999999,
        "epsilon_ionic_eig": [
            5.470024556500232,
            6.415270443499765,
            7.70450994
        ],
        "epsilon_electronic": [
            [
                3.13230745,
                0.0,
                0.12925535
            ],
            [
                0.0,
                3.14705104,
                0.0
            ],
            [
                0.12925772,
                0.0,
                3.1559776
            ]
        ],
        "epsilon_electronic_avg": 3.14511203,
        "epsilon_electronic_eig": [
            3.014345295295134,
            3.273939754704865,
            3.14705104
        ]
    },
    "phonon": {
        "lowest_freq": -0.034664921115737934,
        "frequency": [
            -0.034664921115737934,
            -0.02733983226563394,
            -0.024663092775903263,
            1.340084985078403,
            1.4319189926617395,
            1.711809105773217,
            2.0768433601437235,
            2.1391498822915933,
            2.143888064405623,
            2.2217367007490716,
            2.525144569058879,
            2.5993850967159005,
            2.6332221049501925,
            2.6597837662034567,
            2.7145714660652396,
            3.2044336091834755,
            3.3423948052427805,
            3.3744460457917813,
            3.680037348284529,
            3.708082157070883,
            3.709143243831333,
            4.227299267694135,
            4.490615403917483,
            4.509742437766556,
            5.575638012160978,
            5.983783893596446,
            6.327335538694736,
            6.9579306182366265,
            6.974742314390552,
            7.440713419547565,
            7.635760718508727,
            8.170808904564996,
            9.305569064612097,
            9.908155598281544,
            12.557700190521375,
            13.640830909944723,
            14.288617962778527,
            16.573198056408398,
            16.770957330183773,
            17.01498282292095,
            17.491421645847083,
            18.218877303664428
        ]
    },
    "born_effective_charge": {
        "avg_abs_trace": 1.6512138095238096,
        "tensors": [
            [
                [
                    1.38757,
                    0.0,
                    -0.04839
                ],
                [
                    -3e-05,
                    1.01796,
                    -9e-05
                ],
                [
                    -0.04874,
                    0.0,
                    1.20221
                ]
            ],
            [
                [
                    1.38759,
                    0.0,
                    -0.04822
                ],
                [
                    3e-05,
                    1.01796,
                    9e-05
                ],
                [
                    -0.04872,
                    0.0,
                    1.20224
                ]
            ],
            [
                [
                    1.13987,
                    3e-05,
                    -0.00042
                ],
                [
                    0.0,
                    1.2727,
                    0.0
                ],
                [
                    -0.03666,
                    -3e-05,
                    1.28659
                ]
            ],
            [
                [
                    1.13987,
                    -3e-05,
                    -0.00042
                ],
                [
                    -0.0,
                    1.27271,
                    0.0
                ],
                [
                    -0.03666,
                    3e-05,
                    1.28659
                ]
            ],
            [
                [
                    1.22148,
                    2e-05,
                    -0.02898
                ],
                [
                    0.0,
                    1.18671,
                    0.0
                ],
                [
                    0.01117,
                    -5e-05,
                    1.07393
                ]
            ],
            [
                [
                    1.22148,
                    -2e-05,
                    -0.02898
                ],
                [
                    -0.0,
                    1.18669,
                    0.0
                ],
                [
                    0.01117,
                    5e-05,
                    1.07393
                ]
            ],
            [
                [
                    2.06345,
                    0.0,
                    0.66982
                ],
                [
                    -3e-05,
                    2.27844,
                    -2e-05
                ],
                [
                    0.69755,
                    0.0,
                    2.20674
                ]
            ],
            [
                [
                    2.06357,
                    0.0,
                    0.66996
                ],
                [
                    3e-05,
                    2.27844,
                    2e-05
                ],
                [
                    0.6976,
                    0.0,
                    2.20677
                ]
            ],
            [
                [
                    -2.16278,
                    0.0,
                    0.01266
                ],
                [
                    -0.0001,
                    -1.44393,
                    0.00015
                ],
                [
                    -0.04781,
                    0.0,
                    -2.17484
                ]
            ],
            [
                [
                    -2.16278,
                    0.0,
                    0.01254
                ],
                [
                    0.0001,
                    -1.44393,
                    -0.00015
                ],
                [
                    -0.04763,
                    0.0,
                    -2.17475
                ]
            ],
            [
                [
                    -1.8248,
                    0.2368,
                    -0.3024
                ],
                [
                    0.21869,
                    -2.15589,
                    0.19283
                ],
                [
                    -0.28779,
                    0.22384,
                    -1.79737
                ]
            ],
            [
                [
                    -1.82486,
                    -0.23684,
                    -0.30238
                ],
                [
                    -0.21869,
                    -2.15589,
                    -0.19283
                ],
                [
                    -0.28785,
                    -0.22375,
                    -1.79734
                ]
            ],
            [
                [
                    -1.82486,
                    0.23684,
                    -0.30238
                ],
                [
                    0.21864,
                    -2.15598,
                    0.1928
                ],
                [
                    -0.28785,
                    0.22375,
                    -1.79734
                ]
            ],
            [
                [
                    -1.8248,
                    -0.2368,
                    -0.3024
                ],
                [
                    -0.21864,
                    -2.15598,
                    -0.1928
                ],
                [
                    -0.28779,
                    -0.22384,
                    -1.79737
                ]
            ]
        ]
    },
    "band_gap": 2.5854,
    "is_direct": true,
    "formula": "Rb3GaO3"
}