{
    "mp_id": "mp-1221019",
    "nelements": 4,
    "nsites": 28,
    "elements": [
        "Bi",
        "Na",
        "Nb",
        "O"
    ],
    "structure": {
        "@module": "pymatgen.core.structure",
        "@class": "Structure",
        "charge": null,
        "lattice": {
            "matrix": [
                [
                    2.74343759,
                    -12.53854585,
                    0.00014347
                ],
                [
                    2.74343759,
                    12.53854585,
                    0.00014347
                ],
                [
                    -0.00628511,
                    0.0,
                    5.54071107
                ]
            ],
            "a": 12.835169724758643,
            "b": 12.835169724758643,
            "c": 5.540714634758612,
            "alpha": 90.01325150479727,
            "beta": 90.01325150479727,
            "gamma": 155.31632476272245,
            "volume": 381.18673794328265
        },
        "sites": [
            {
                "species": [
                    {
                        "element": "Na",
                        "occu": 1
                    }
                ],
                "abc": [
                    0.26192884,
                    0.26192884,
                    0.47789851
                ],
                "xyz": [
                    1.434167206418005,
                    0.0,
                    2.6479727225548553
                ],
                "label": "Na",
                "properties": {}
            },
            {
                "species": [
                    {
                        "element": "Nb",
                        "occu": 1
                    }
                ],
                "abc": [
                    0.16874621,
                    0.33432584,
                    0.94452334
                ],
                "xyz": [
                    1.3742103393588923,
                    2.076127782581035,
                    5.233403101558388
                ],
                "label": "Nb",
                "properties": {}
            },
            {
                "species": [
                    {
                        "element": "Nb",
                        "occu": 1
                    }
                ],
                "abc": [
                    0.33432584,
                    0.16874621,
                    0.94452334
                ],
                "xyz": [
                    1.3742103393588923,
                    -2.076127782581035,
                    5.233403101558388
                ],
                "label": "Nb",
                "properties": {}
            },
            {
                "species": [
                    {
                        "element": "Nb",
                        "occu": 1
                    }
                ],
                "abc": [
                    0.83924202,
                    0.67252959,
                    0.45086011
                ],
                "xyz": [
                    4.144617356982859,
                    -2.0903314473199153,
                    2.4983024963713047
                ],
                "label": "Nb",
                "properties": {}
            },
            {
                "species": [
                    {
                        "element": "Nb",
                        "occu": 1
                    }
                ],
                "abc": [
                    0.67252959,
                    0.83924202,
                    0.45086011
                ],
                "xyz": [
                    4.144617356982859,
                    2.0903314473199153,
                    2.4983024963713047
                ],
                "label": "Nb",
                "properties": {}
            },
            {
                "species": [
                    {
                        "element": "Bi",
                        "occu": 1
                    }
                ],
                "abc": [
                    0.91693715,
                    0.51794164,
                    0.03153864
                ],
                "xyz": [
                    3.936302185758066,
                    -5.0028234960791345,
                    0.17495235384074612
                ],
                "label": "Bi",
                "properties": {}
            },
            {
                "species": [
                    {
                        "element": "Bi",
                        "occu": 1
                    }
                ],
                "abc": [
                    0.51794164,
                    0.91693715,
                    0.03153864
                ],
                "xyz": [
                    3.936302185758066,
                    5.0028234960791345,
                    0.17495235384074612
                ],
                "label": "Bi",
                "properties": {}
            },
            {
                "species": [
                    {
                        "element": "Bi",
                        "occu": 1
                    }
                ],
                "abc": [
                    0.0727312,
                    0.47289166,
                    0.53045466
                ],
                "xyz": [
                    1.4935482981991948,
                    5.017430275067091,
                    2.9391742873068107
                ],
                "label": "Bi",
                "properties": {}
            },
            {
                "species": [
                    {
                        "element": "Bi",
                        "occu": 1
                    }
                ],
                "abc": [
                    0.47289166,
                    0.0727312,
                    0.53045466
                ],
                "xyz": [
                    1.4935482981991948,
                    -5.017430275067091,
                    2.9391742873068107
                ],
                "label": "Bi",
                "properties": {}
            },
            {
                "species": [
                    {
                        "element": "Bi",
                        "occu": 1
                    }
                ],
                "abc": [
                    0.75462528,
                    0.75462528,
                    0.99953664
                ],
                "xyz": [
                    4.1342525213011205,
                    0.0,
                    5.538360258296448
                ],
                "label": "Bi",
                "properties": {}
            },
            {
                "species": [
                    {
                        "element": "O",
                        "occu": 1
                    }
                ],
                "abc": [
                    0.52733302,
                    0.40415411,
                    0.21408017
                ],
                "xyz": [
                    2.554131289625948,
                    -1.5444844107880238,
                    1.186290008245023
                ],
                "label": "O",
                "properties": {}
            },
            {
                "species": [
                    {
                        "element": "O",
                        "occu": 1
                    }
                ],
                "abc": [
                    0.40415411,
                    0.52733302,
                    0.21408017
                ],
                "xyz": [
                    2.554131289625948,
                    1.5444844107880238,
                    1.186290008245023
                ],
                "label": "O",
                "properties": {}
            },
            {
                "species": [
                    {
                        "element": "O",
                        "occu": 1
                    }
                ],
                "abc": [
                    0.47979322,
                    0.6073614,
                    0.72227863
                ],
                "xyz": [
                    2.978001250009967,
                    1.5995194739310534,
                    4.002093174938766
                ],
                "label": "O",
                "properties": {}
            },
            {
                "species": [
                    {
                        "element": "O",
                        "occu": 1
                    }
                ],
                "abc": [
                    0.6073614,
                    0.47979322,
                    0.72227863
                ],
                "xyz": [
                    2.978001250009967,
                    -1.5995194739310534,
                    4.002093174938766
                ],
                "label": "O",
                "properties": {}
            },
            {
                "species": [
                    {
                        "element": "O",
                        "occu": 1
                    }
                ],
                "abc": [
                    0.17094471,
                    0.48487222,
                    0.94265748
                ],
                "xyz": [
                    1.7932681119662761,
                    3.9361944777113336,
                    5.2230868247092515
                ],
                "label": "O",
                "properties": {}
            },
            {
                "species": [
                    {
                        "element": "O",
                        "occu": 1
                    }
                ],
                "abc": [
                    0.48487222,
                    0.17094471,
                    0.94265748
                ],
                "xyz": [
                    1.7932681119662761,
                    -3.9361944777113336,
                    5.2230868247092515
                ],
                "label": "O",
                "properties": {}
            },
            {
                "species": [
                    {
                        "element": "O",
                        "occu": 1
                    }
                ],
                "abc": [
                    0.82324178,
                    0.51009246,
                    0.42838761
                ],
                "xyz": [
                    3.655226810798595,
                    -3.926437106716323,
                    2.3737632664412556
                ],
                "label": "O",
                "properties": {}
            },
            {
                "species": [
                    {
                        "element": "O",
                        "occu": 1
                    }
                ],
                "abc": [
                    0.51009246,
                    0.82324178,
                    0.42838761
                ],
                "xyz": [
                    3.655226810798595,
                    3.926437106716323,
                    2.3737632664412556
                ],
                "label": "O",
                "properties": {}
            },
            {
                "species": [
                    {
                        "element": "O",
                        "occu": 1
                    }
                ],
                "abc": [
                    0.02634631,
                    0.85312072,
                    0.12467796
                ],
                "xyz": [
                    2.4119792945744822,
                    10.3665488473917,
                    0.6909307302918114
                ],
                "label": "O",
                "properties": {}
            },
            {
                "species": [
                    {
                        "element": "O",
                        "occu": 1
                    }
                ],
                "abc": [
                    0.85312072,
                    0.02634631,
                    0.12467796
                ],
                "xyz": [
                    2.4119792945744822,
                    -10.3665488473917,
                    0.6909307302918114
                ],
                "label": "O",
                "properties": {}
            },
            {
                "species": [
                    {
                        "element": "O",
                        "occu": 1
                    }
                ],
                "abc": [
                    0.96428731,
                    0.14745264,
                    0.63086805
                ],
                "xyz": [
                    3.046024094044985,
                    -10.24191896166462,
                    3.49561708967494
                ],
                "label": "O",
                "properties": {}
            },
            {
                "species": [
                    {
                        "element": "O",
                        "occu": 1
                    }
                ],
                "abc": [
                    0.14745264,
                    0.96428731,
                    0.63086805
                ],
                "xyz": [
                    3.046024094044985,
                    10.24191896166462,
                    3.49561708967494
                ],
                "label": "O",
                "properties": {}
            },
            {
                "species": [
                    {
                        "element": "O",
                        "occu": 1
                    }
                ],
                "abc": [
                    0.16545449,
                    0.16545449,
                    0.90643361
                ],
                "xyz": [
                    0.9021310996540113,
                    0.0,
                    5.022334212658423
                ],
                "label": "O",
                "properties": {}
            },
            {
                "species": [
                    {
                        "element": "O",
                        "occu": 1
                    }
                ],
                "abc": [
                    0.83280709,
                    0.83280709,
                    0.40673807
                ],
                "xyz": [
                    4.566952158337888,
                    0.0,
                    2.25385709270584
                ],
                "label": "O",
                "properties": {}
            },
            {
                "species": [
                    {
                        "element": "O",
                        "occu": 1
                    }
                ],
                "abc": [
                    0.23615604,
                    0.73940133,
                    0.25805642
                ],
                "xyz": [
                    2.6747588470736323,
                    6.309964142461547,
                    1.4299560261944433
                ],
                "label": "O",
                "properties": {}
            },
            {
                "species": [
                    {
                        "element": "O",
                        "occu": 1
                    }
                ],
                "abc": [
                    0.73940133,
                    0.23615604,
                    0.25805642
                ],
                "xyz": [
                    2.6747588470736323,
                    -6.309964142461547,
                    1.4299560261944433
                ],
                "label": "O",
                "properties": {}
            },
            {
                "species": [
                    {
                        "element": "O",
                        "occu": 1
                    }
                ],
                "abc": [
                    0.75888186,
                    0.25639989,
                    0.75651204
                ],
                "xyz": [
                    2.7806073560032583,
                    -6.3003932196433245,
                    4.191760297088956
                ],
                "label": "O",
                "properties": {}
            },
            {
                "species": [
                    {
                        "element": "O",
                        "occu": 1
                    }
                ],
                "abc": [
                    0.25639989,
                    0.75888186,
                    0.75651204
                ],
                "xyz": [
                    2.7806073560032583,
                    6.3003932196433245,
                    4.191760297088956
                ],
                "label": "O",
                "properties": {}
            }
        ]
    },
    "spacegroup": {
        "source": "spglib",
        "symbol": "Cm",
        "number": 8,
        "point_group": "m",
        "crystal_system": "monoclinic",
        "hall": "C -2y"
    },
    "dielectric": {
        "epsilon_ionic": [
            [
                50.70947303,
                3.679e-05,
                2.45404024
            ],
            [
                3.679e-05,
                57.05436155,
                4.471e-05
            ],
            [
                2.45404024,
                4.471e-05,
                36.89844795
            ]
        ],
        "epsilon_ionic_avg": 48.220760843333345,
        "epsilon_ionic_eig": [
            36.475357830511996,
            51.132563149093826,
            57.054361550394205
        ],
        "epsilon_electronic": [
            [
                6.58845977,
                0.0,
                0.12519865
            ],
            [
                0.0,
                6.34700468,
                0.0
            ],
            [
                0.12528747,
                0.0,
                6.29807418
            ]
        ],
        "epsilon_electronic_avg": 6.411179543333334,
        "epsilon_electronic_eig": [
            6.635013604242413,
            6.251520345757587,
            6.34700468
        ]
    },
    "phonon": {
        "lowest_freq": -0.053321848196276646,
        "frequency": [
            -0.053321848196276646,
            -0.05168908668826925,
            -0.04413140211735693,
            1.3943910188917144,
            1.5948142376778331,
            1.728733970581063,
            1.882441247263735,
            2.260727629299634,
            2.4032137382078087,
            2.4239695539894575,
            2.643386564935082,
            2.8272148725938973,
            2.8514826751852302,
            3.055873301043519,
            3.1005652359957696,
            3.235733267174406,
            3.506517465772053,
            3.9497141579057007,
            4.3612801135979655,
            4.550629596761218,
            4.577778068751544,
            4.579851692082831,
            4.845551737367695,
            4.8779867375691435,
            4.995162210563787,
            5.109678477565676,
            5.39260477104684,
            5.629465547579744,
            5.6645176940906525,
            5.730067573101547,
            5.948156928853888,
            6.042540502143433,
            6.167351112553546,
            6.529531323022736,
            6.602819163499508,
            6.800764978485398,
            6.804597260928154,
            6.895733333565573,
            7.03738857140775,
            7.099632457117703,
            7.372320261481288,
            7.408658863915746,
            7.718793485843474,
            8.077359660163014,
            8.260019779754733,
            8.589593494764449,
            9.16007934059523,
            9.28768093221418,
            9.645651798088974,
            9.68612655223591,
            10.00229838315712,
            10.054609743232422,
            10.07712149076349,
            10.487743083908416,
            10.700021216532793,
            10.75531465325824,
            10.836669666423836,
            11.192790747451124,
            11.621857071713704,
            11.79968872505837,
            11.800697842885231,
            12.03369972370017,
            12.65129929616063,
            12.726825249610386,
            13.047624850721684,
            13.534774010313457,
            13.556553794085918,
            13.85648553266115,
            14.447131904542239,
            15.423652225395513,
            16.03188724991985,
            16.2658348528834,
            16.680919308815394,
            16.70041577282373,
            17.007013202514173,
            17.974098724387165,
            18.532889244792326,
            18.626902596468778,
            18.70295669483894,
            18.877227765928467,
            21.43316861274609,
            23.059237566981974,
            25.244664782734365,
            25.253365863522113
        ]
    },
    "born_effective_charge": {
        "avg_abs_trace": 3.927982976190477,
        "tensors": [
            [
                [
                    1.12096,
                    -0.0,
                    -0.02512
                ],
                [
                    0.0,
                    1.05188,
                    0.0
                ],
                [
                    -0.06844,
                    -0.0,
                    1.13842
                ]
            ],
            [
                [
                    8.82355,
                    0.22883,
                    1.08143
                ],
                [
                    0.56832,
                    7.40045,
                    -0.65569
                ],
                [
                    -0.57892,
                    -0.46572,
                    6.8429
                ]
            ],
            [
                [
                    8.82355,
                    -0.22883,
                    1.08143
                ],
                [
                    -0.5683,
                    7.40043,
                    0.65566
                ],
                [
                    -0.57892,
                    0.46572,
                    6.8429
                ]
            ],
            [
                [
                    7.3075,
                    -0.17454,
                    -0.47481
                ],
                [
                    0.51395,
                    7.15317,
                    0.10812
                ],
                [
                    0.70809,
                    -0.34975,
                    7.97236
                ]
            ],
            [
                [
                    7.3075,
                    0.17454,
                    -0.47481
                ],
                [
                    -0.51398,
                    7.15321,
                    -0.10812
                ],
                [
                    0.70809,
                    0.34975,
                    7.97236
                ]
            ],
            [
                [
                    4.77879,
                    -0.52581,
                    0.30753
                ],
                [
                    -1.05906,
                    4.52233,
                    0.56069
                ],
                [
                    0.42093,
                    0.09231,
                    4.77951
                ]
            ],
            [
                [
                    4.77879,
                    0.52581,
                    0.30753
                ],
                [
                    1.05908,
                    4.52235,
                    -0.56067
                ],
                [
                    0.42093,
                    -0.09231,
                    4.77951
                ]
            ],
            [
                [
                    4.86097,
                    -0.49668,
                    -0.27636
                ],
                [
                    -0.97207,
                    4.42634,
                    -0.45504
                ],
                [
                    -0.35983,
                    -0.04136,
                    4.67063
                ]
            ],
            [
                [
                    4.86097,
                    0.49668,
                    -0.27636
                ],
                [
                    0.9721,
                    4.42635,
                    0.45507
                ],
                [
                    -0.35983,
                    0.04136,
                    4.67063
                ]
            ],
            [
                [
                    5.04405,
                    -0.0,
                    -0.04435
                ],
                [
                    -0.0,
                    4.97545,
                    2e-05
                ],
                [
                    0.72847,
                    -0.0,
                    4.56747
                ]
            ],
            [
                [
                    -3.82968,
                    -0.63662,
                    -1.82408
                ],
                [
                    -0.59603,
                    -1.83706,
                    -0.12062
                ],
                [
                    -1.84052,
                    0.02239,
                    -3.48159
                ]
            ],
            [
                [
                    -3.82968,
                    0.63662,
                    -1.82408
                ],
                [
                    0.59602,
                    -1.83705,
                    0.1206
                ],
                [
                    -1.84052,
                    -0.02239,
                    -3.48159
                ]
            ],
            [
                [
                    -3.65029,
                    0.15168,
                    1.79854
                ],
                [
                    0.16224,
                    -1.82335,
                    0.711
                ],
                [
                    1.85095,
                    0.79841,
                    -4.08184
                ]
            ],
            [
                [
                    -3.65029,
                    -0.15168,
                    1.79854
                ],
                [
                    -0.16223,
                    -1.82336,
                    -0.71099
                ],
                [
                    1.85095,
                    -0.79841,
                    -4.08184
                ]
            ],
            [
                [
                    -2.43581,
                    -1.2593,
                    -0.33842
                ],
                [
                    -1.3508,
                    -4.67224,
                    0.52503
                ],
                [
                    -0.37752,
                    0.11103,
                    -2.01083
                ]
            ],
            [
                [
                    -2.43581,
                    1.2593,
                    -0.33842
                ],
                [
                    1.35079,
                    -4.67225,
                    -0.52502
                ],
                [
                    -0.37752,
                    -0.11103,
                    -2.01083
                ]
            ],
            [
                [
                    -2.24318,
                    -1.32735,
                    0.27282
                ],
                [
                    -1.34617,
                    -4.56214,
                    -0.70518
                ],
                [
                    0.30687,
                    -0.3751,
                    -2.20471
                ]
            ],
            [
                [
                    -2.24318,
                    1.32735,
                    0.27282
                ],
                [
                    1.34617,
                    -4.56215,
                    0.70515
                ],
                [
                    0.30687,
                    0.3751,
                    -2.20471
                ]
            ],
            [
                [
                    -4.09291,
                    0.21005,
                    2.01541
                ],
                [
                    0.35303,
                    -2.09929,
                    0.14173
                ],
                [
                    1.99099,
                    0.2982,
                    -3.47882
                ]
            ],
            [
                [
                    -4.09291,
                    -0.21005,
                    2.01541
                ],
                [
                    -0.35304,
                    -2.09927,
                    -0.14174
                ],
                [
                    1.99099,
                    -0.2982,
                    -3.47882
                ]
            ],
            [
                [
                    -4.24038,
                    -0.26321,
                    -2.49136
                ],
                [
                    -0.07108,
                    -1.52983,
                    0.23959
                ],
                [
                    -2.53241,
                    -0.09819,
                    -3.64783
                ]
            ],
            [
                [
                    -4.24038,
                    0.26321,
                    -2.49136
                ],
                [
                    0.07109,
                    -1.52984,
                    -0.2396
                ],
                [
                    -2.53241,
                    0.09819,
                    -3.64783
                ]
            ],
            [
                [
                    -3.28525,
                    -0.0,
                    0.05066
                ],
                [
                    -2e-05,
                    -4.8401,
                    2e-05
                ],
                [
                    0.4241,
                    -0.0,
                    -1.39741
                ]
            ],
            [
                [
                    -1.43779,
                    -0.0,
                    -0.01306
                ],
                [
                    0.0,
                    -4.8211,
                    -2e-05
                ],
                [
                    -0.14913,
                    -0.0,
                    -3.02661
                ]
            ],
            [
                [
                    -3.00833,
                    0.36502,
                    -0.31144
                ],
                [
                    0.17306,
                    -2.58438,
                    0.22074
                ],
                [
                    0.0842,
                    0.1362,
                    -2.99608
                ]
            ],
            [
                [
                    -3.00833,
                    -0.36502,
                    -0.31144
                ],
                [
                    -0.17308,
                    -2.58438,
                    -0.22072
                ],
                [
                    0.0842,
                    -0.1362,
                    -2.99608
                ]
            ],
            [
                [
                    -2.99122,
                    0.47325,
                    0.25668
                ],
                [
                    0.17388,
                    -2.57709,
                    -0.26212
                ],
                [
                    -0.14031,
                    -0.2103,
                    -3.00464
                ]
            ],
            [
                [
                    -2.99122,
                    -0.47325,
                    0.25668
                ],
                [
                    -0.17387,
                    -2.57707,
                    0.2621
                ],
                [
                    -0.14031,
                    0.2103,
                    -3.00464
                ]
            ]
        ]
    },
    "band_gap": 2.4905,
    "is_direct": false,
    "formula": "NaNb4Bi5O18"
}