{
    "mp_id": "mp-1210919",
    "nelements": 4,
    "nsites": 24,
    "elements": [
        "La",
        "Li",
        "O",
        "W"
    ],
    "structure": {
        "@module": "pymatgen.core.structure",
        "@class": "Structure",
        "charge": null,
        "lattice": {
            "matrix": [
                [
                    7.10741795,
                    0.00092029,
                    -0.00260262
                ],
                [
                    -0.11409312,
                    7.38167791,
                    0.00161525
                ],
                [
                    -3.29140652,
                    -3.06707267,
                    6.04669947
                ]
            ],
            "a": 7.107418486099348,
            "b": 7.382559760411415,
            "c": 7.536767617716346,
            "alpha": 113.57659863683013,
            "beta": 115.9164301861956,
            "gamma": 90.8780935338854,
            "volume": 317.2097892807737
        },
        "sites": [
            {
                "species": [
                    {
                        "element": "Li",
                        "occu": 1
                    }
                ],
                "abc": [
                    0.26202207,
                    0.66797645,
                    0.01133755
                ],
                "xyz": [
                    1.7487723603563068,
                    4.8962550519062615,
                    0.0689517626571376
                ],
                "label": "Li",
                "properties": {}
            },
            {
                "species": [
                    {
                        "element": "Li",
                        "occu": 1
                    }
                ],
                "abc": [
                    0.73797793,
                    0.33202355,
                    0.98866245
                ],
                "xyz": [
                    1.9531459496436936,
                    -0.5807295219062611,
                    5.976760337342863
                ],
                "label": "Li",
                "properties": {}
            },
            {
                "species": [
                    {
                        "element": "La",
                        "occu": 1
                    }
                ],
                "abc": [
                    0.18512775,
                    0.28825015,
                    0.46110534
                ],
                "xyz": [
                    -0.23479218804367186,
                    0.7136965497211762,
                    2.7881491938622522
                ],
                "label": "La",
                "properties": {}
            },
            {
                "species": [
                    {
                        "element": "La",
                        "occu": 1
                    }
                ],
                "abc": [
                    0.81487225,
                    0.71174985,
                    0.53889466
                ],
                "xyz": [
                    3.9367104980436727,
                    3.6018289802788237,
                    3.2575629061377476
                ],
                "label": "La",
                "properties": {}
            },
            {
                "species": [
                    {
                        "element": "W",
                        "occu": 1
                    }
                ],
                "abc": [
                    0.25723415,
                    0.29230126,
                    0.02859254
                ],
                "xyz": [
                    1.7008113797503006,
                    2.070215086023188,
                    0.1726931533306958
                ],
                "label": "W",
                "properties": {}
            },
            {
                "species": [
                    {
                        "element": "W",
                        "occu": 1
                    }
                ],
                "abc": [
                    0.74276585,
                    0.70769874,
                    0.97140746
                ],
                "xyz": [
                    2.0011069302496995,
                    2.2453104439768117,
                    5.873018946669304
                ],
                "label": "W",
                "properties": {}
            },
            {
                "species": [
                    {
                        "element": "W",
                        "occu": 1
                    }
                ],
                "abc": [
                    0.64635203,
                    0.1006949,
                    0.27875696
                ],
                "xyz": [
                    3.664902949092471,
                    -0.11107570329893546,
                    1.6840400010077177
                ],
                "label": "W",
                "properties": {}
            },
            {
                "species": [
                    {
                        "element": "W",
                        "occu": 1
                    }
                ],
                "abc": [
                    0.35364797,
                    0.8993051,
                    0.72124304
                ],
                "xyz": [
                    0.037015360907528994,
                    4.4266012332989355,
                    4.361672098992282
                ],
                "label": "W",
                "properties": {}
            },
            {
                "species": [
                    {
                        "element": "O",
                        "occu": 1
                    }
                ],
                "abc": [
                    0.18250564,
                    0.36250478,
                    0.80804963
                ],
                "xyz": [
                    -1.403835260318463,
                    0.19771454873423355,
                    4.886143812471814
                ],
                "label": "O",
                "properties": {}
            },
            {
                "species": [
                    {
                        "element": "O",
                        "occu": 1
                    }
                ],
                "abc": [
                    0.81749436,
                    0.63749522,
                    0.19195037
                ],
                "xyz": [
                    5.105753570318463,
                    4.117810981265767,
                    1.1595682875281856
                ],
                "label": "O",
                "properties": {}
            },
            {
                "species": [
                    {
                        "element": "O",
                        "occu": 1
                    }
                ],
                "abc": [
                    0.43973798,
                    0.53521469,
                    0.24464682
                ],
                "xyz": [
                    2.2591051600515417,
                    3.2008375653217023,
                    1.4790258314977003
                ],
                "label": "O",
                "properties": {}
            },
            {
                "species": [
                    {
                        "element": "O",
                        "occu": 1
                    }
                ],
                "abc": [
                    0.56026202,
                    0.46478531,
                    0.75535318
                ],
                "xyz": [
                    1.4428131499484587,
                    1.1146879646782972,
                    4.566686268502299
                ],
                "label": "O",
                "properties": {}
            },
            {
                "species": [
                    {
                        "element": "O",
                        "occu": 1
                    }
                ],
                "abc": [
                    0.86406794,
                    0.00788421,
                    0.19540389
                ],
                "xyz": [
                    5.497238815078526,
                    -0.5403240387513826,
                    1.1793124925671379
                ],
                "label": "O",
                "properties": {}
            },
            {
                "species": [
                    {
                        "element": "O",
                        "occu": 1
                    }
                ],
                "abc": [
                    0.13593206,
                    0.99211579,
                    0.80459611
                ],
                "xyz": [
                    -1.7953205050785246,
                    4.855849568751383,
                    4.866399607432862
                ],
                "label": "O",
                "properties": {}
            },
            {
                "species": [
                    {
                        "element": "O",
                        "occu": 1
                    }
                ],
                "abc": [
                    0.70421045,
                    0.00691395,
                    0.47377837
                ],
                "xyz": [
                    3.444931942727581,
                    -1.4014280604432727,
                    2.862973794332823
                ],
                "label": "O",
                "properties": {}
            },
            {
                "species": [
                    {
                        "element": "O",
                        "occu": 1
                    }
                ],
                "abc": [
                    0.29578955,
                    0.99308605,
                    0.52622163
                ],
                "xyz": [
                    0.2569863672724191,
                    5.716953590443273,
                    3.1827383056671774
                ],
                "label": "O",
                "properties": {}
            },
            {
                "species": [
                    {
                        "element": "O",
                        "occu": 1
                    }
                ],
                "abc": [
                    0.17812655,
                    0.64585431,
                    0.56485432
                ],
                "xyz": [
                    -0.6668328861499411,
                    3.0352031738845566,
                    3.416083937823877
                ],
                "label": "O",
                "properties": {}
            },
            {
                "species": [
                    {
                        "element": "O",
                        "occu": 1
                    }
                ],
                "abc": [
                    0.82187345,
                    0.35414569,
                    0.43514568
                ],
                "xyz": [
                    4.368751196149942,
                    1.2803223561154429,
                    2.629628162176123
                ],
                "label": "O",
                "properties": {}
            },
            {
                "species": [
                    {
                        "element": "O",
                        "occu": 1
                    }
                ],
                "abc": [
                    0.48091269,
                    0.82720463,
                    0.00724492
                ],
                "xyz": [
                    3.2998231512487615,
                    6.084380027331867,
                    0.043892363217552105
                ],
                "label": "O",
                "properties": {}
            },
            {
                "species": [
                    {
                        "element": "O",
                        "occu": 1
                    }
                ],
                "abc": [
                    0.51908731,
                    0.17279537,
                    0.99275508
                ],
                "xyz": [
                    0.4020951587512389,
                    -1.7688544973318672,
                    6.001819736782449
                ],
                "label": "O",
                "properties": {}
            },
            {
                "species": [
                    {
                        "element": "O",
                        "occu": 1
                    }
                ],
                "abc": [
                    0.03625547,
                    0.30556761,
                    0.08659333
                ],
                "xyz": [
                    -0.06219423468266827,
                    1.99004700644769,
                    0.5240030514872561
                ],
                "label": "O",
                "properties": {}
            },
            {
                "species": [
                    {
                        "element": "O",
                        "occu": 1
                    }
                ],
                "abc": [
                    0.96374453,
                    0.69443239,
                    0.91340667
                ],
                "xyz": [
                    3.764112544682669,
                    2.32547852355231,
                    5.521709048512744
                ],
                "label": "O",
                "properties": {}
            },
            {
                "species": [
                    {
                        "element": "O",
                        "occu": 1
                    }
                ],
                "abc": [
                    0.38487001,
                    0.17203134,
                    0.25631489
                ],
                "xyz": [
                    1.872167925053216,
                    0.484097740294146,
                    1.5491353127526173
                ],
                "label": "O",
                "properties": {}
            },
            {
                "species": [
                    {
                        "element": "O",
                        "occu": 1
                    }
                ],
                "abc": [
                    0.61512999,
                    0.82796866,
                    0.74368511
                ],
                "xyz": [
                    1.8297503849467849,
                    3.8314277897058546,
                    4.496576787247384
                ],
                "label": "O",
                "properties": {}
            }
        ]
    },
    "spacegroup": {
        "source": "spglib",
        "symbol": "P-1",
        "number": 2,
        "point_group": "-1",
        "crystal_system": "triclinic",
        "hall": "-P 1"
    },
    "dielectric": {
        "epsilon_ionic": [
            [
                8.38535707,
                0.39539283,
                0.38283228
            ],
            [
                0.39539283,
                9.92771235,
                -0.20101064
            ],
            [
                0.38283228,
                -0.20101064,
                11.50068017
            ]
        ],
        "epsilon_ionic_avg": 9.937916529999997,
        "epsilon_ionic_eig": [
            8.23594459997404,
            10.01614277660957,
            11.56166221341638
        ],
        "epsilon_electronic": [
            [
                4.06620322,
                -0.03806766,
                0.0260245
            ],
            [
                -0.03805323,
                4.28326437,
                0.05958516
            ],
            [
                0.02602937,
                0.05958332,
                4.28606283
            ]
        ],
        "epsilon_electronic_avg": 4.2118434733333325,
        "epsilon_electronic_eig": [
            4.0539325902808185,
            4.237089832157867,
            4.344507997561312
        ]
    },
    "phonon": {
        "lowest_freq": -0.04573999682351126,
        "frequency": [
            -0.04573999682351126,
            -0.03392890768079797,
            -0.029612539120373663,
            2.162253477876123,
            2.3345243429601346,
            2.4758670834293377,
            2.9739665540100115,
            3.032421989785261,
            3.2488665803777192,
            3.4977414631430435,
            3.5917421151451276,
            3.599374443380533,
            3.9520811982926807,
            4.152917539631209,
            4.30457413004557,
            4.622205713013447,
            4.881193496571218,
            4.944743781507267,
            5.246646948030112,
            5.559797596442056,
            5.618362554573365,
            5.838548956235604,
            5.995001344613765,
            6.004094692107586,
            6.373105494514874,
            6.404707746443888,
            6.755295995287139,
            6.9427129310122,
            7.003526965359244,
            7.321022080374575,
            7.615514445516956,
            8.391701900678761,
            8.743224232056326,
            9.173205795108203,
            9.444924139672167,
            9.492701013573363,
            9.584042476685072,
            9.915703749680176,
            10.105481533613204,
            10.361711536356383,
            10.4144902297286,
            10.497112472303815,
            10.828665536488797,
            11.008377366725089,
            11.230433778413026,
            11.977739387064219,
            12.03157254752072,
            12.456613463991268,
            12.966764708223245,
            13.131984800111892,
            13.310778925258006,
            13.46499917806198,
            14.695990473594984,
            15.36886261963211,
            15.773014186093743,
            15.995459227129674,
            17.345133421810285,
            17.46067011780565,
            18.090086200551134,
            18.23520113774374,
            19.87542098512271,
            20.02777267159122,
            21.51538190116841,
            22.132822005547375,
            22.61713937755466,
            22.70519648815708,
            23.054561275429943,
            23.06865722984684,
            25.037385223542962,
            25.138414025510613,
            25.45075753235828,
            26.067519986858446
        ]
    },
    "born_effective_charge": {
        "avg_abs_trace": 2.827148194444444,
        "tensors": [
            [
                [
                    1.42333,
                    -0.03264,
                    0.11628
                ],
                [
                    0.09813,
                    1.45346,
                    -0.05122
                ],
                [
                    0.0273,
                    -0.01321,
                    0.68688
                ]
            ],
            [
                [
                    1.42332,
                    -0.03265,
                    0.11628
                ],
                [
                    0.09813,
                    1.45345,
                    -0.05122
                ],
                [
                    0.02731,
                    -0.0132,
                    0.68689
                ]
            ],
            [
                [
                    4.8642,
                    0.63886,
                    -0.35578
                ],
                [
                    0.58724,
                    4.83876,
                    0.15111
                ],
                [
                    0.38649,
                    -0.12127,
                    5.31392
                ]
            ],
            [
                [
                    4.86397,
                    0.63899,
                    -0.35544
                ],
                [
                    0.58734,
                    4.83847,
                    0.15084
                ],
                [
                    0.38599,
                    -0.12116,
                    5.31413
                ]
            ],
            [
                [
                    4.48522,
                    -0.33104,
                    0.16453
                ],
                [
                    -0.01861,
                    5.64972,
                    0.201
                ],
                [
                    -0.51531,
                    0.22166,
                    6.03004
                ]
            ],
            [
                [
                    4.48566,
                    -0.3314,
                    0.16473
                ],
                [
                    -0.01817,
                    5.64952,
                    0.20117
                ],
                [
                    -0.51585,
                    0.22221,
                    6.0296
                ]
            ],
            [
                [
                    5.48508,
                    -0.63785,
                    0.35289
                ],
                [
                    -0.97676,
                    5.54103,
                    0.16743
                ],
                [
                    0.23122,
                    0.37662,
                    5.11714
                ]
            ],
            [
                [
                    5.48507,
                    -0.63794,
                    0.35287
                ],
                [
                    -0.97669,
                    5.54122,
                    0.16739
                ],
                [
                    0.23095,
                    0.37649,
                    5.11725
                ]
            ],
            [
                [
                    -0.92412,
                    0.00486,
                    0.3985
                ],
                [
                    -0.48841,
                    -2.19673,
                    1.38227
                ],
                [
                    0.61878,
                    1.2217,
                    -2.96608
                ]
            ],
            [
                [
                    -0.92487,
                    0.00584,
                    0.39766
                ],
                [
                    -0.48888,
                    -2.19645,
                    1.38225
                ],
                [
                    0.61959,
                    1.22146,
                    -2.96562
                ]
            ],
            [
                [
                    -1.30351,
                    -0.34091,
                    -0.84235
                ],
                [
                    -0.82063,
                    -2.09972,
                    -1.29746
                ],
                [
                    -0.99527,
                    -1.06344,
                    -2.65794
                ]
            ],
            [
                [
                    -1.30358,
                    -0.34094,
                    -0.84231
                ],
                [
                    -0.82088,
                    -2.09995,
                    -1.2977
                ],
                [
                    -0.9951,
                    -1.06313,
                    -2.658
                ]
            ],
            [
                [
                    -2.65267,
                    -0.02534,
                    -0.12561
                ],
                [
                    0.47436,
                    -2.04485,
                    -1.25285
                ],
                [
                    -0.15272,
                    -1.36968,
                    -2.30833
                ]
            ],
            [
                [
                    -2.65303,
                    -0.02533,
                    -0.12539
                ],
                [
                    0.47414,
                    -2.0448,
                    -1.25296
                ],
                [
                    -0.15263,
                    -1.36972,
                    -2.30853
                ]
            ],
            [
                [
                    -0.7889,
                    -0.02995,
                    0.11168
                ],
                [
                    0.06009,
                    -3.03518,
                    1.38481
                ],
                [
                    0.19234,
                    1.43448,
                    -1.77742
                ]
            ],
            [
                [
                    -0.78897,
                    -0.02971,
                    0.11178
                ],
                [
                    0.06002,
                    -3.03526,
                    1.38485
                ],
                [
                    0.19244,
                    1.43435,
                    -1.77745
                ]
            ],
            [
                [
                    -1.93252,
                    -0.42578,
                    -0.47077
                ],
                [
                    -0.49476,
                    -3.32366,
                    -1.23069
                ],
                [
                    -0.89088,
                    -1.41339,
                    -1.66593
                ]
            ],
            [
                [
                    -1.93256,
                    -0.42578,
                    -0.47091
                ],
                [
                    -0.49477,
                    -3.32368,
                    -1.23078
                ],
                [
                    -0.89072,
                    -1.41351,
                    -1.66587
                ]
            ],
            [
                [
                    -1.83459,
                    0.49144,
                    -0.12202
                ],
                [
                    0.43908,
                    -1.9688,
                    -0.29906
                ],
                [
                    0.04805,
                    -0.35341,
                    -2.41649
                ]
            ],
            [
                [
                    -1.83455,
                    0.49153,
                    -0.12207
                ],
                [
                    0.43901,
                    -1.96897,
                    -0.29912
                ],
                [
                    0.04808,
                    -0.35354,
                    -2.41636
                ]
            ],
            [
                [
                    -3.334,
                    -0.26067,
                    0.64568
                ],
                [
                    -0.00444,
                    -0.98616,
                    0.26188
                ],
                [
                    0.73841,
                    0.37716,
                    -1.47442
                ]
            ],
            [
                [
                    -3.3335,
                    -0.26057,
                    0.64559
                ],
                [
                    -0.00465,
                    -0.98597,
                    0.26191
                ],
                [
                    0.73818,
                    0.37686,
                    -1.47417
                ]
            ],
            [
                [
                    -3.48715,
                    0.94833,
                    0.12727
                ],
                [
                    1.1449,
                    -1.82796,
                    0.58322
                ],
                [
                    0.31164,
                    0.70293,
                    -1.88188
                ]
            ],
            [
                [
                    -3.48733,
                    0.94865,
                    0.12694
                ],
                [
                    1.1452,
                    -1.82751,
                    0.58293
                ],
                [
                    0.31169,
                    0.70273,
                    -1.88135
                ]
            ]
        ]
    },
    "band_gap": 3.5827999999999998,
    "is_direct": false,
    "formula": "LiLa(WO4)2"
}