{
    "mp_id": "mp-19247",
    "nelements": 3,
    "nsites": 12,
    "elements": [
        "O",
        "Sc",
        "V"
    ],
    "structure": {
        "@module": "pymatgen.core.structure",
        "@class": "Structure",
        "charge": null,
        "lattice": {
            "matrix": [
                [
                    -3.38443215,
                    3.38443215,
                    3.03489379
                ],
                [
                    3.38443215,
                    -3.38443215,
                    3.03489379
                ],
                [
                    3.38443215,
                    3.38443215,
                    -3.03489379
                ]
            ],
            "a": 5.667392899075183,
            "b": 5.667392899075183,
            "c": 5.667392899075183,
            "alpha": 106.66415125504366,
            "beta": 106.66415125504366,
            "gamma": 115.2442297922602,
            "volume": 139.0513187931423
        },
        "sites": [
            {
                "species": [
                    {
                        "element": "Sc",
                        "occu": 1
                    }
                ],
                "abc": [
                    0.75,
                    0.25,
                    0.5
                ],
                "xyz": [
                    2.220446049250313e-16,
                    3.3844321499999994,
                    1.517446895
                ],
                "label": "Sc",
                "properties": {}
            },
            {
                "species": [
                    {
                        "element": "Sc",
                        "occu": 1
                    }
                ],
                "abc": [
                    0.0,
                    0.0,
                    0.0
                ],
                "xyz": [
                    0.0,
                    0.0,
                    0.0
                ],
                "label": "Sc",
                "properties": {}
            },
            {
                "species": [
                    {
                        "element": "V",
                        "occu": 1
                    }
                ],
                "abc": [
                    0.5,
                    0.5,
                    0.0
                ],
                "xyz": [
                    0.0,
                    0.0,
                    3.03489379
                ],
                "label": "V",
                "properties": {}
            },
            {
                "species": [
                    {
                        "element": "V",
                        "occu": 1
                    }
                ],
                "abc": [
                    0.25,
                    0.75,
                    0.5
                ],
                "xyz": [
                    3.3844321499999994,
                    2.220446049250313e-16,
                    1.517446895
                ],
                "label": "V",
                "properties": {}
            },
            {
                "species": [
                    {
                        "element": "O",
                        "occu": 1
                    }
                ],
                "abc": [
                    0.51077114,
                    0.31731541,
                    0.19345673
                ],
                "xyz": [
                    3.3844321500886565e-06,
                    1.309478968859589,
                    1.926034099666818
                ],
                "label": "O",
                "properties": {}
            },
            {
                "species": [
                    {
                        "element": "O",
                        "occu": 1
                    }
                ],
                "abc": [
                    0.06731541,
                    0.37385869,
                    0.30654327
                ],
                "xyz": [
                    2.0749498305525824,
                    -3.384432134545534e-08,
                    0.4085902699095457
                ],
                "label": "O",
                "properties": {}
            },
            {
                "species": [
                    {
                        "element": "O",
                        "occu": 1
                    }
                ],
                "abc": [
                    0.06731541,
                    0.76077114,
                    0.69345673
                ],
                "xyz": [
                    4.693911118859589,
                    3.3844321496445673e-06,
                    0.40858720466681797
                ],
                "label": "O",
                "properties": {}
            },
            {
                "species": [
                    {
                        "element": "O",
                        "occu": 1
                    }
                ],
                "abc": [
                    0.12385869,
                    0.31731541,
                    0.80654327
                ],
                "xyz": [
                    3.3844321161556783,
                    2.0749498305525824,
                    -1.1088566250904544
                ],
                "label": "O",
                "properties": {}
            },
            {
                "species": [
                    {
                        "element": "O",
                        "occu": 1
                    }
                ],
                "abc": [
                    0.68268459,
                    0.87614131,
                    0.19345673
                ],
                "xyz": [
                    1.3094823194474174,
                    3.3844321567499946e-08,
                    4.143750415090453
                ],
                "label": "O",
                "properties": {}
            },
            {
                "species": [
                    {
                        "element": "O",
                        "occu": 1
                    }
                ],
                "abc": [
                    0.23922886,
                    0.93268459,
                    0.30654327
                ],
                "xyz": [
                    3.3844287655678498,
                    -1.3094789688595891,
                    2.6263065853331824
                ],
                "label": "O",
                "properties": {}
            },
            {
                "species": [
                    {
                        "element": "O",
                        "occu": 1
                    }
                ],
                "abc": [
                    0.62614131,
                    0.93268459,
                    0.69345673
                ],
                "xyz": [
                    3.3844321838443214,
                    1.309482319447417,
                    2.626303520090454
                ],
                "label": "O",
                "properties": {}
            },
            {
                "species": [
                    {
                        "element": "O",
                        "occu": 1
                    }
                ],
                "abc": [
                    0.68268459,
                    0.48922886,
                    0.80654327
                ],
                "xyz": [
                    2.074953181140411,
                    3.3844287655678498,
                    1.1088596903331824
                ],
                "label": "O",
                "properties": {}
            }
        ]
    },
    "spacegroup": {
        "source": "spglib",
        "symbol": "I4_1/amd",
        "number": 141,
        "point_group": "4/mmm",
        "crystal_system": "tetragonal",
        "hall": "I 4bw 2bw -1bw"
    },
    "dielectric": {
        "epsilon_ionic": [
            [
                8.16888184,
                2e-08,
                -1e-08
            ],
            [
                2e-08,
                8.16889488,
                -1e-08
            ],
            [
                -1e-08,
                -1e-08,
                22.26244254
            ]
        ],
        "epsilon_ionic_avg": 12.866739753333334,
        "epsilon_ionic_eig": [
            8.168881839969325,
            8.168894880030676,
            22.26244254
        ],
        "epsilon_electronic": [
            [
                4.8744449,
                0.0,
                0.0
            ],
            [
                0.0,
                4.8744449,
                -0.0
            ],
            [
                0.0,
                0.0,
                5.97605688
            ]
        ],
        "epsilon_electronic_avg": 5.241648893333333,
        "epsilon_electronic_eig": [
            4.8744449,
            4.8744449,
            5.97605688
        ]
    },
    "phonon": {
        "lowest_freq": -0.10111572758657186,
        "frequency": [
            -0.10111572758657186,
            -0.06835374504178514,
            -0.06835374504178514,
            2.889753454991296,
            3.7066420412396797,
            3.7066420412396797,
            4.851021729531709,
            4.851021729531709,
            5.4068789641725425,
            5.453254422236304,
            5.453254422236304,
            5.670213678176843,
            5.858625781311122,
            7.240545906185456,
            8.260137052239582,
            8.260137052239582,
            8.295995796589255,
            9.08142767990219,
            9.08142767990219,
            9.395336128855629,
            9.395336128855629,
            10.250570758878556,
            10.413281053019256,
            11.339205939405058,
            11.339205939405058,
            13.06322329708042,
            13.292762575106636,
            14.132535721179405,
            23.200336566878168,
            23.200336566878168,
            24.51536326653324,
            25.053779753436192,
            25.44358750519792,
            25.44358750519792,
            26.162517309566486,
            26.827228300031944
        ]
    },
    "born_effective_charge": {
        "avg_abs_trace": 2.949193888888889,
        "tensors": [
            [
                [
                    4.7098,
                    -0.0,
                    4e-05
                ],
                [
                    0.0,
                    4.7098,
                    9e-05
                ],
                [
                    -0.0,
                    0.0,
                    4.76143
                ]
            ],
            [
                [
                    4.7098,
                    -0.0,
                    -4e-05
                ],
                [
                    0.0,
                    4.7098,
                    -9e-05
                ],
                [
                    -0.0,
                    0.0,
                    4.76143
                ]
            ],
            [
                [
                    3.64268,
                    -0.0,
                    0.00025
                ],
                [
                    0.0,
                    3.64269,
                    -7e-05
                ],
                [
                    -0.0,
                    0.0,
                    5.07634
                ]
            ],
            [
                [
                    3.64268,
                    -0.0,
                    -0.00025
                ],
                [
                    0.0,
                    3.64269,
                    7e-05
                ],
                [
                    -0.0,
                    0.0,
                    5.07634
                ]
            ],
            [
                [
                    -0.79328,
                    0.00012,
                    2e-05
                ],
                [
                    0.0,
                    -3.38282,
                    1.34784
                ],
                [
                    -0.0,
                    1.28585,
                    -2.45947
                ]
            ],
            [
                [
                    -3.38301,
                    -0.0,
                    -1.34765
                ],
                [
                    -2e-05,
                    -0.79328,
                    9e-05
                ],
                [
                    -1.28585,
                    0.0,
                    -2.45947
                ]
            ],
            [
                [
                    -3.38292,
                    -0.0,
                    1.34778
                ],
                [
                    2e-05,
                    -0.79328,
                    9e-05
                ],
                [
                    1.28585,
                    -0.0,
                    -2.45947
                ]
            ],
            [
                [
                    -0.79328,
                    -0.00012,
                    2e-05
                ],
                [
                    0.0,
                    -3.38312,
                    -1.34761
                ],
                [
                    -0.0,
                    -1.28585,
                    -2.45947
                ]
            ],
            [
                [
                    -3.38292,
                    -0.0,
                    -1.34778
                ],
                [
                    2e-05,
                    -0.79328,
                    -9e-05
                ],
                [
                    -1.28593,
                    0.0,
                    -2.45941
                ]
            ],
            [
                [
                    -0.79328,
                    -0.00012,
                    -2e-05
                ],
                [
                    -0.0,
                    -3.38312,
                    1.34761
                ],
                [
                    -0.0,
                    1.28593,
                    -2.45941
                ]
            ],
            [
                [
                    -0.79328,
                    0.00012,
                    -2e-05
                ],
                [
                    0.0,
                    -3.38282,
                    -1.34784
                ],
                [
                    -0.0,
                    -1.28593,
                    -2.45941
                ]
            ],
            [
                [
                    -3.38301,
                    -0.0,
                    1.34765
                ],
                [
                    -2e-05,
                    -0.79328,
                    -9e-05
                ],
                [
                    1.28593,
                    0.0,
                    -2.45941
                ]
            ]
        ]
    },
    "band_gap": 2.7020999999999997,
    "is_direct": true,
    "formula": "ScVO4"
}