{
    "mp_id": "mp-19276",
    "nelements": 3,
    "nsites": 12,
    "elements": [
        "Ba",
        "Mo",
        "O"
    ],
    "structure": {
        "@module": "pymatgen.core.structure",
        "@class": "Structure",
        "charge": null,
        "lattice": {
            "matrix": [
                [
                    -2.80343775,
                    2.80343779,
                    6.37210735
                ],
                [
                    2.80343775,
                    -2.80343779,
                    6.37210735
                ],
                [
                    2.80343779,
                    2.80343775,
                    -6.37210735
                ]
            ],
            "a": 7.504817035774368,
            "b": 7.504817035774368,
            "c": 7.504817035774368,
            "alpha": 136.13033537550857,
            "beta": 136.13033537550857,
            "gamma": 63.778898956498324,
            "volume": 200.3202785294065
        },
        "sites": [
            {
                "species": [
                    {
                        "element": "Ba",
                        "occu": 1
                    }
                ],
                "abc": [
                    0.75,
                    0.25,
                    0.5
                ],
                "xyz": [
                    2.0000000100495186e-08,
                    2.8034377699999995,
                    3.186053675
                ],
                "label": "Ba",
                "properties": {}
            },
            {
                "species": [
                    {
                        "element": "Ba",
                        "occu": 1
                    }
                ],
                "abc": [
                    0.0,
                    0.0,
                    0.0
                ],
                "xyz": [
                    0.0,
                    0.0,
                    0.0
                ],
                "label": "Ba",
                "properties": {}
            },
            {
                "species": [
                    {
                        "element": "Mo",
                        "occu": 1
                    }
                ],
                "abc": [
                    0.25,
                    0.75,
                    0.5
                ],
                "xyz": [
                    2.8034377699999995,
                    -1.9999999656405976e-08,
                    3.186053675
                ],
                "label": "Mo",
                "properties": {}
            },
            {
                "species": [
                    {
                        "element": "Mo",
                        "occu": 1
                    }
                ],
                "abc": [
                    0.5,
                    0.5,
                    0.0
                ],
                "xyz": [
                    0.0,
                    0.0,
                    6.37210735
                ],
                "label": "Mo",
                "properties": {}
            },
            {
                "species": [
                    {
                        "element": "O",
                        "occu": 1
                    }
                ],
                "abc": [
                    0.56280714,
                    0.95268595,
                    0.85853868
                ],
                "xyz": [
                    3.499860753567795,
                    1.3138587558729402,
                    4.1861840245759145
                ],
                "label": "O",
                "properties": {}
            },
            {
                "species": [
                    {
                        "element": "O",
                        "occu": 1
                    }
                ],
                "abc": [
                    0.09414726,
                    0.70426846,
                    0.14146132
                ],
                "xyz": [
                    2.1070148144665826,
                    -1.313858823907318,
                    4.18618396085484
                ],
                "label": "O",
                "properties": {}
            },
            {
                "species": [
                    {
                        "element": "O",
                        "occu": 1
                    }
                ],
                "abc": [
                    0.70268595,
                    0.34414726,
                    0.88987881
                ],
                "xyz": [
                    1.4895789860926822,
                    3.4998607616021724,
                    1.0001302858548407
                ],
                "label": "O",
                "properties": {}
            },
            {
                "species": [
                    {
                        "element": "O",
                        "occu": 1
                    }
                ],
                "abc": [
                    0.04731405,
                    0.90585274,
                    0.61012119
                ],
                "xyz": [
                    4.117296573907318,
                    -0.6964230316021724,
                    2.1859233891451604
                ],
                "label": "O",
                "properties": {}
            },
            {
                "species": [
                    {
                        "element": "O",
                        "occu": 1
                    }
                ],
                "abc": [
                    0.65585274,
                    0.54573154,
                    0.35853868
                ],
                "xyz": [
                    0.6964229555334169,
                    1.313858803907318,
                    5.3719770641451605
                ],
                "label": "O",
                "properties": {}
            },
            {
                "species": [
                    {
                        "element": "O",
                        "occu": 1
                    }
                ],
                "abc": [
                    0.45426846,
                    0.81280714,
                    0.11012119
                ],
                "xyz": [
                    1.31385877587294,
                    -0.6964229835677946,
                    7.372237699575914
                ],
                "label": "O",
                "properties": {}
            },
            {
                "species": [
                    {
                        "element": "O",
                        "occu": 1
                    }
                ],
                "abc": [
                    0.29573154,
                    0.43719286,
                    0.38987881
                ],
                "xyz": [
                    1.48957899412706,
                    0.6964229635677949,
                    2.1859233254240866
                ],
                "label": "O",
                "properties": {}
            },
            {
                "species": [
                    {
                        "element": "O",
                        "occu": 1
                    }
                ],
                "abc": [
                    0.18719286,
                    0.29731405,
                    0.64146132
                ],
                "xyz": [
                    2.107014806432205,
                    1.48957897412706,
                    -1.0001303495759135
                ],
                "label": "O",
                "properties": {}
            }
        ]
    },
    "spacegroup": {
        "source": "spglib",
        "symbol": "I4_1/a",
        "number": 88,
        "point_group": "4/m",
        "crystal_system": "tetragonal",
        "hall": "I 4bw -1bw"
    },
    "dielectric": {
        "epsilon_ionic": [
            [
                6.79948683,
                -8.424e-05,
                -1e-08
            ],
            [
                -8.424e-05,
                6.79943249,
                0.0
            ],
            [
                -1e-08,
                0.0,
                4.48698937
            ]
        ],
        "epsilon_ionic_avg": 6.028636230000001,
        "epsilon_ionic_eig": [
            6.799548173199582,
            6.7993711468004205,
            4.48698937
        ],
        "epsilon_electronic": [
            [
                3.6634994,
                -8.8e-07,
                -0.0
            ],
            [
                8.8e-07,
                3.6634994,
                0.0
            ],
            [
                0.0,
                0.0,
                3.64534094
            ]
        ],
        "epsilon_electronic_avg": 3.6574465800000002,
        "epsilon_electronic_eig": [
            3.6634994,
            3.6634994,
            3.64534094
        ]
    },
    "phonon": {
        "lowest_freq": -0.013498067667509743,
        "frequency": [
            -0.013498067667509743,
            -0.012775313475491004,
            -0.012775313475491004,
            2.275408223613603,
            2.3559370657047367,
            2.3559370657047367,
            2.9395953031652944,
            2.9395953031652944,
            3.288244225132549,
            3.288244225132549,
            3.831691761469461,
            4.013269631448295,
            4.309111195241176,
            4.309111195241176,
            4.457117585490097,
            5.754081043694477,
            5.754081043694477,
            5.767224780363202,
            7.870911958034813,
            8.976772135229226,
            8.976772135229226,
            9.322377919106218,
            9.39581735556,
            9.861553927791464,
            10.129844977120994,
            10.129844977120994,
            10.674325876912084,
            10.89072284034115,
            23.431982929517087,
            23.431982929517087,
            23.47537439462213,
            23.821341479747577,
            23.821341479747577,
            24.600050395939792,
            26.09575767302679,
            26.13266900708764
        ]
    },
    "born_effective_charge": {
        "avg_abs_trace": 2.334221111111111,
        "tensors": [
            [
                [
                    3.10901,
                    0.11858,
                    2e-05
                ],
                [
                    -0.11858,
                    3.10898,
                    -7e-05
                ],
                [
                    -0.0,
                    -0.0,
                    2.98733
                ]
            ],
            [
                [
                    3.10901,
                    0.11858,
                    -2e-05
                ],
                [
                    -0.11858,
                    3.10898,
                    7e-05
                ],
                [
                    -0.0,
                    -0.0,
                    2.98733
                ]
            ],
            [
                [
                    3.88479,
                    -0.15978,
                    -1e-05
                ],
                [
                    0.15973,
                    3.88479,
                    -3e-05
                ],
                [
                    -0.0,
                    -0.0,
                    4.03309
                ]
            ],
            [
                [
                    3.88479,
                    -0.15978,
                    1e-05
                ],
                [
                    0.15973,
                    3.88479,
                    3e-05
                ],
                [
                    -0.0,
                    -0.0,
                    4.03309
                ]
            ],
            [
                [
                    -1.32761,
                    -0.75178,
                    -0.43641
                ],
                [
                    -0.77252,
                    -2.16903,
                    -0.94657
                ],
                [
                    -0.38828,
                    -0.98303,
                    -1.75519
                ]
            ],
            [
                [
                    -1.32789,
                    -0.75215,
                    0.43678
                ],
                [
                    -0.77261,
                    -2.16929,
                    0.94662
                ],
                [
                    0.38828,
                    0.98303,
                    -1.75519
                ]
            ],
            [
                [
                    -2.1689,
                    0.77235,
                    0.94645
                ],
                [
                    0.75213,
                    -1.32776,
                    -0.43664
                ],
                [
                    0.98303,
                    -0.38828,
                    -1.75519
                ]
            ],
            [
                [
                    -2.1694,
                    0.77278,
                    0.94678
                ],
                [
                    0.75186,
                    -1.32769,
                    -0.4366
                ],
                [
                    0.98296,
                    -0.38833,
                    -1.75502
                ]
            ],
            [
                [
                    -1.32761,
                    -0.75178,
                    0.43641
                ],
                [
                    -0.77252,
                    -2.16903,
                    0.94657
                ],
                [
                    0.38833,
                    0.98296,
                    -1.75502
                ]
            ],
            [
                [
                    -2.1694,
                    0.77278,
                    -0.94678
                ],
                [
                    0.75186,
                    -1.32769,
                    0.4366
                ],
                [
                    -0.98303,
                    0.38828,
                    -1.75519
                ]
            ],
            [
                [
                    -2.1689,
                    0.77235,
                    -0.94645
                ],
                [
                    0.75213,
                    -1.32776,
                    0.43664
                ],
                [
                    -0.98296,
                    0.38833,
                    -1.75502
                ]
            ],
            [
                [
                    -1.32789,
                    -0.75215,
                    -0.43678
                ],
                [
                    -0.77261,
                    -2.16929,
                    -0.94662
                ],
                [
                    -0.38833,
                    -0.98296,
                    -1.75502
                ]
            ]
        ]
    },
    "band_gap": 3.9831999999999996,
    "is_direct": false,
    "formula": "BaMoO4"
}