{
    "mp_id": "mp-17612",
    "nelements": 3,
    "nsites": 28,
    "elements": [
        "Ba",
        "O",
        "Si"
    ],
    "structure": {
        "@module": "pymatgen.core.structure",
        "@class": "Structure",
        "charge": null,
        "lattice": {
            "matrix": [
                [
                    7.50874042,
                    0.0,
                    0.0
                ],
                [
                    0.0,
                    5.78334987,
                    0.0
                ],
                [
                    0.0,
                    0.0,
                    10.23436218
                ]
            ],
            "a": 7.50874042,
            "b": 5.78334987,
            "c": 10.23436218,
            "alpha": 90.0,
            "beta": 90.0,
            "gamma": 90.0,
            "volume": 444.4340646949876
        },
        "sites": [
            {
                "species": [
                    {
                        "element": "Ba",
                        "occu": 1
                    }
                ],
                "abc": [
                    0.49104979,
                    0.25,
                    0.19327201
                ],
                "xyz": [
                    3.6871654064055117,
                    1.4458374675,
                    1.9780157495965818
                ],
                "label": "Ba",
                "properties": {}
            },
            {
                "species": [
                    {
                        "element": "Ba",
                        "occu": 1
                    }
                ],
                "abc": [
                    0.00895021,
                    0.75,
                    0.69327201
                ],
                "xyz": [
                    0.0672048035944882,
                    4.3375124025,
                    7.095196839596582
                ],
                "label": "Ba",
                "properties": {}
            },
            {
                "species": [
                    {
                        "element": "Ba",
                        "occu": 1
                    }
                ],
                "abc": [
                    0.84122412,
                    0.75,
                    0.08361854
                ],
                "xyz": [
                    6.31653355212293,
                    4.3375124025,
                    0.8557824233228172
                ],
                "label": "Ba",
                "properties": {}
            },
            {
                "species": [
                    {
                        "element": "Ba",
                        "occu": 1
                    }
                ],
                "abc": [
                    0.65877588,
                    0.25,
                    0.58361854
                ],
                "xyz": [
                    4.946577077877069,
                    1.4458374675,
                    5.972963513322817
                ],
                "label": "Ba",
                "properties": {}
            },
            {
                "species": [
                    {
                        "element": "Ba",
                        "occu": 1
                    }
                ],
                "abc": [
                    0.34122412,
                    0.75,
                    0.41638146
                ],
                "xyz": [
                    2.5621633421229304,
                    4.3375124025,
                    4.261398666677183
                ],
                "label": "Ba",
                "properties": {}
            },
            {
                "species": [
                    {
                        "element": "Ba",
                        "occu": 1
                    }
                ],
                "abc": [
                    0.15877588,
                    0.25,
                    0.91638146
                ],
                "xyz": [
                    1.1922068678770696,
                    1.4458374675,
                    9.378579756677182
                ],
                "label": "Ba",
                "properties": {}
            },
            {
                "species": [
                    {
                        "element": "Ba",
                        "occu": 1
                    }
                ],
                "abc": [
                    0.50895021,
                    0.75,
                    0.80672799
                ],
                "xyz": [
                    3.821575013594488,
                    4.3375124025,
                    8.256346430403417
                ],
                "label": "Ba",
                "properties": {}
            },
            {
                "species": [
                    {
                        "element": "Ba",
                        "occu": 1
                    }
                ],
                "abc": [
                    0.99104979,
                    0.25,
                    0.30672799
                ],
                "xyz": [
                    7.4415356164055115,
                    1.4458374675,
                    3.139165340403418
                ],
                "label": "Ba",
                "properties": {}
            },
            {
                "species": [
                    {
                        "element": "Si",
                        "occu": 1
                    }
                ],
                "abc": [
                    0.27178297,
                    0.75,
                    0.07930565
                ],
                "xyz": [
                    2.0407477723066476,
                    4.3375124025,
                    0.8116427450203171
                ],
                "label": "Si",
                "properties": {}
            },
            {
                "species": [
                    {
                        "element": "Si",
                        "occu": 1
                    }
                ],
                "abc": [
                    0.72821703,
                    0.25,
                    0.92069435
                ],
                "xyz": [
                    5.467992647693353,
                    1.4458374675,
                    9.422719434979683
                ],
                "label": "Si",
                "properties": {}
            },
            {
                "species": [
                    {
                        "element": "Si",
                        "occu": 1
                    }
                ],
                "abc": [
                    0.77178297,
                    0.75,
                    0.42069435
                ],
                "xyz": [
                    5.795117982306647,
                    4.3375124025,
                    4.3055383449796825
                ],
                "label": "Si",
                "properties": {}
            },
            {
                "species": [
                    {
                        "element": "Si",
                        "occu": 1
                    }
                ],
                "abc": [
                    0.22821703,
                    0.25,
                    0.57930565
                ],
                "xyz": [
                    1.7136224376933524,
                    1.4458374675,
                    5.928823835020317
                ],
                "label": "Si",
                "properties": {}
            },
            {
                "species": [
                    {
                        "element": "O",
                        "occu": 1
                    }
                ],
                "abc": [
                    0.49009473,
                    0.75,
                    0.08430381
                ],
                "xyz": [
                    3.679994108779986,
                    4.3375124025,
                    0.8627957246939059
                ],
                "label": "O",
                "properties": {}
            },
            {
                "species": [
                    {
                        "element": "O",
                        "occu": 1
                    }
                ],
                "abc": [
                    0.50990527,
                    0.25,
                    0.91569619
                ],
                "xyz": [
                    3.828746311220013,
                    1.4458374675,
                    9.371566455306095
                ],
                "label": "O",
                "properties": {}
            },
            {
                "species": [
                    {
                        "element": "O",
                        "occu": 1
                    }
                ],
                "abc": [
                    0.69263464,
                    0.75,
                    0.57219113
                ],
                "xyz": [
                    5.200813717660148,
                    4.3375124025,
                    5.856011260603463
                ],
                "label": "O",
                "properties": {}
            },
            {
                "species": [
                    {
                        "element": "O",
                        "occu": 1
                    }
                ],
                "abc": [
                    0.99009473,
                    0.75,
                    0.41569619
                ],
                "xyz": [
                    7.434364318779987,
                    4.3375124025,
                    4.254385365306094
                ],
                "label": "O",
                "properties": {}
            },
            {
                "species": [
                    {
                        "element": "O",
                        "occu": 1
                    }
                ],
                "abc": [
                    0.30736536,
                    0.25,
                    0.42780887
                ],
                "xyz": [
                    2.307926702339851,
                    1.4458374675,
                    4.378350919396537
                ],
                "label": "O",
                "properties": {}
            },
            {
                "species": [
                    {
                        "element": "O",
                        "occu": 1
                    }
                ],
                "abc": [
                    0.6914229,
                    0.98335134,
                    0.3501284
                ],
                "xyz": [
                    5.191715076543617,
                    5.687064844353326,
                    3.583340855103912
                ],
                "label": "O",
                "properties": {}
            },
            {
                "species": [
                    {
                        "element": "O",
                        "occu": 1
                    }
                ],
                "abc": [
                    0.19263464,
                    0.75,
                    0.92780887
                ],
                "xyz": [
                    1.4464435076601487,
                    4.3375124025,
                    9.495532009396536
                ],
                "label": "O",
                "properties": {}
            },
            {
                "species": [
                    {
                        "element": "O",
                        "occu": 1
                    }
                ],
                "abc": [
                    0.3085771,
                    0.48335134,
                    0.6498716
                ],
                "xyz": [
                    2.3170253434563817,
                    2.795389909353326,
                    6.651021324896088
                ],
                "label": "O",
                "properties": {}
            },
            {
                "species": [
                    {
                        "element": "O",
                        "occu": 1
                    }
                ],
                "abc": [
                    0.80736536,
                    0.25,
                    0.07219113
                ],
                "xyz": [
                    6.062296912339852,
                    1.4458374675,
                    0.7388301706034635
                ],
                "label": "O",
                "properties": {}
            },
            {
                "species": [
                    {
                        "element": "O",
                        "occu": 1
                    }
                ],
                "abc": [
                    0.1914229,
                    0.98335134,
                    0.1498716
                ],
                "xyz": [
                    1.437344866543618,
                    5.687064844353326,
                    1.533840234896088
                ],
                "label": "O",
                "properties": {}
            },
            {
                "species": [
                    {
                        "element": "O",
                        "occu": 1
                    }
                ],
                "abc": [
                    0.00990527,
                    0.25,
                    0.58430381
                ],
                "xyz": [
                    0.0743761012200134,
                    1.4458374675,
                    5.979976814693906
                ],
                "label": "O",
                "properties": {}
            },
            {
                "species": [
                    {
                        "element": "O",
                        "occu": 1
                    }
                ],
                "abc": [
                    0.3085771,
                    0.01664866,
                    0.6498716
                ],
                "xyz": [
                    2.3170253434563817,
                    0.0962850256466742,
                    6.651021324896088
                ],
                "label": "O",
                "properties": {}
            },
            {
                "species": [
                    {
                        "element": "O",
                        "occu": 1
                    }
                ],
                "abc": [
                    0.6914229,
                    0.51664866,
                    0.3501284
                ],
                "xyz": [
                    5.191715076543617,
                    2.9879599606466742,
                    3.583340855103912
                ],
                "label": "O",
                "properties": {}
            },
            {
                "species": [
                    {
                        "element": "O",
                        "occu": 1
                    }
                ],
                "abc": [
                    0.1914229,
                    0.51664866,
                    0.1498716
                ],
                "xyz": [
                    1.437344866543618,
                    2.9879599606466742,
                    1.533840234896088
                ],
                "label": "O",
                "properties": {}
            },
            {
                "species": [
                    {
                        "element": "O",
                        "occu": 1
                    }
                ],
                "abc": [
                    0.8085771,
                    0.01664866,
                    0.8501284
                ],
                "xyz": [
                    6.071395553456382,
                    0.0962850256466742,
                    8.700521945103912
                ],
                "label": "O",
                "properties": {}
            },
            {
                "species": [
                    {
                        "element": "O",
                        "occu": 1
                    }
                ],
                "abc": [
                    0.8085771,
                    0.48335134,
                    0.8501284
                ],
                "xyz": [
                    6.071395553456382,
                    2.795389909353326,
                    8.700521945103912
                ],
                "label": "O",
                "properties": {}
            }
        ]
    },
    "spacegroup": {
        "source": "spglib",
        "symbol": "Pnma",
        "number": 62,
        "point_group": "mmm",
        "crystal_system": "orthorhombic",
        "hall": "-P 2ac 2n"
    },
    "dielectric": {
        "epsilon_ionic": [
            [
                8.83823477,
                -0.0,
                1e-08
            ],
            [
                -0.0,
                15.50608025,
                -1e-08
            ],
            [
                1e-08,
                -1e-08,
                13.75705577
            ]
        ],
        "epsilon_ionic_avg": 12.700456930000001,
        "epsilon_ionic_eig": [
            8.83823477,
            13.75705577,
            15.50608025
        ],
        "epsilon_electronic": [
            [
                3.71209966,
                -0.0,
                0.0
            ],
            [
                0.0,
                3.5948065,
                0.0
            ],
            [
                0.0,
                0.0,
                3.58250606
            ]
        ],
        "epsilon_electronic_avg": 3.6298040733333337,
        "epsilon_electronic_eig": [
            3.71209966,
            3.5948065,
            3.58250606
        ]
    },
    "phonon": {
        "lowest_freq": -0.07878137203497093,
        "frequency": [
            -0.07878137203497093,
            -0.056131874268526165,
            -0.008291434899047618,
            1.2734013697987738,
            1.7596397712529162,
            1.8139726666807117,
            1.848862525366711,
            1.973203435315138,
            2.080864395226928,
            2.1407117581175443,
            2.3924799834962593,
            2.4031928393403503,
            2.4526854985120803,
            2.5729394676661275,
            2.652825132080907,
            2.722414119406696,
            2.912912981120293,
            2.9155681768843986,
            2.959083382726234,
            3.0466989150298547,
            3.2568318582021742,
            3.3838442303502334,
            3.401065932631709,
            3.48631855672574,
            3.785973566288753,
            3.825416975352674,
            3.9498972195157642,
            4.39567350912482,
            4.503942870161891,
            4.599886046715659,
            4.6083853548867735,
            4.683372149617052,
            4.68918610120678,
            4.739373468403338,
            4.807323932534335,
            5.047078495188803,
            5.15989069905426,
            5.2087161728412115,
            5.263477314095097,
            5.326751097237713,
            5.568870406689076,
            5.819021362011562,
            5.820608543570094,
            5.882384072792541,
            6.2710123503037245,
            6.3924521602137405,
            7.137654168706316,
            7.18927545905343,
            9.82330816179033,
            9.904988756662853,
            9.91781547025067,
            10.331379337317001,
            10.356053794434905,
            10.436885825868977,
            10.58129548743357,
            11.21857244421651,
            13.801471683130083,
            13.844291931796832,
            13.871083097036792,
            13.930564383790951,
            14.003435912245273,
            14.16110753134512,
            14.229833531575531,
            14.243851828778297,
            14.306248469760806,
            14.513398032218925,
            14.948693701121652,
            15.327822801601352,
            24.030680983056513,
            24.053095055833932,
            24.05507964394055,
            24.11692800666034,
            25.24805149552306,
            25.481241713028716,
            25.58475216382218,
            26.293942217107283,
            26.316385915841895,
            26.378252387687926,
            26.39303853496509,
            26.666652386284984,
            26.898273855743188,
            27.02915900752506,
            27.21706923574729,
            27.418463982877622
        ]
    },
    "born_effective_charge": {
        "avg_abs_trace": 2.368843095238095,
        "tensors": [
            [
                [
                    2.82456,
                    0.0,
                    0.07085
                ],
                [
                    6e-05,
                    2.56154,
                    -0.0001
                ],
                [
                    0.09653,
                    0.0,
                    2.8044
                ]
            ],
            [
                [
                    2.82461,
                    0.0,
                    -0.07083
                ],
                [
                    -6e-05,
                    2.56154,
                    -0.0001
                ],
                [
                    -0.09653,
                    0.0,
                    2.8044
                ]
            ],
            [
                [
                    2.97718,
                    0.0,
                    0.02662
                ],
                [
                    -0.0002,
                    2.7168,
                    8e-05
                ],
                [
                    -0.01924,
                    0.0,
                    2.57559
                ]
            ],
            [
                [
                    2.97741,
                    0.0,
                    -0.0266
                ],
                [
                    0.0002,
                    2.7168,
                    8e-05
                ],
                [
                    0.01924,
                    -0.0,
                    2.57559
                ]
            ],
            [
                [
                    2.97718,
                    0.0,
                    -0.02662
                ],
                [
                    -0.0002,
                    2.7168,
                    -8e-05
                ],
                [
                    0.01921,
                    0.0,
                    2.57564
                ]
            ],
            [
                [
                    2.97741,
                    0.0,
                    0.0266
                ],
                [
                    0.0002,
                    2.7168,
                    -8e-05
                ],
                [
                    -0.01921,
                    0.0,
                    2.57564
                ]
            ],
            [
                [
                    2.82461,
                    0.0,
                    0.07083
                ],
                [
                    -6e-05,
                    2.56154,
                    0.0001
                ],
                [
                    0.09665,
                    0.0,
                    2.80444
                ]
            ],
            [
                [
                    2.82456,
                    0.0,
                    -0.07085
                ],
                [
                    6e-05,
                    2.56154,
                    0.0001
                ],
                [
                    -0.09665,
                    0.0,
                    2.80444
                ]
            ],
            [
                [
                    2.9211,
                    0.0,
                    0.01097
                ],
                [
                    0.0001,
                    2.90465,
                    0.00023
                ],
                [
                    0.03061,
                    0.0,
                    2.58677
                ]
            ],
            [
                [
                    2.92129,
                    0.0,
                    0.01099
                ],
                [
                    -0.0001,
                    2.90465,
                    -0.00023
                ],
                [
                    0.03063,
                    0.0,
                    2.58675
                ]
            ],
            [
                [
                    2.9211,
                    0.0,
                    -0.01097
                ],
                [
                    0.0001,
                    2.90465,
                    -0.00023
                ],
                [
                    -0.03063,
                    -0.0,
                    2.58675
                ]
            ],
            [
                [
                    2.92129,
                    0.0,
                    -0.01099
                ],
                [
                    -0.0001,
                    2.90465,
                    0.00023
                ],
                [
                    -0.03061,
                    0.0,
                    2.58677
                ]
            ],
            [
                [
                    -2.79977,
                    0.0,
                    0.0455
                ],
                [
                    8e-05,
                    -1.64233,
                    6e-05
                ],
                [
                    0.02335,
                    -0.0,
                    -1.67973
                ]
            ],
            [
                [
                    -2.80029,
                    0.0,
                    0.04547
                ],
                [
                    -8e-05,
                    -1.64233,
                    -6e-05
                ],
                [
                    0.02294,
                    -0.0,
                    -1.67977
                ]
            ],
            [
                [
                    -1.97188,
                    0.0,
                    0.20326
                ],
                [
                    -0.00038,
                    -1.88277,
                    0.00032
                ],
                [
                    0.18137,
                    0.0,
                    -2.44558
                ]
            ],
            [
                [
                    -2.79977,
                    0.0,
                    -0.0455
                ],
                [
                    8e-05,
                    -1.64233,
                    -6e-05
                ],
                [
                    -0.02294,
                    0.0,
                    -1.67977
                ]
            ],
            [
                [
                    -1.97182,
                    0.0,
                    0.20345
                ],
                [
                    0.00038,
                    -1.88277,
                    -0.00032
                ],
                [
                    0.18123,
                    0.0,
                    -2.44539
                ]
            ],
            [
                [
                    -1.97561,
                    0.19142,
                    -0.12911
                ],
                [
                    0.21392,
                    -2.32889,
                    0.33376
                ],
                [
                    -0.10674,
                    0.34403,
                    -1.92077
                ]
            ],
            [
                [
                    -1.97188,
                    0.0,
                    -0.20326
                ],
                [
                    -0.00038,
                    -1.88277,
                    -0.00032
                ],
                [
                    -0.18123,
                    0.0,
                    -2.44539
                ]
            ],
            [
                [
                    -1.97558,
                    -0.19171,
                    -0.12925
                ],
                [
                    -0.21392,
                    -2.32889,
                    -0.33376
                ],
                [
                    -0.10678,
                    -0.34413,
                    -1.92079
                ]
            ],
            [
                [
                    -1.97182,
                    0.0,
                    -0.20345
                ],
                [
                    0.00038,
                    -1.88277,
                    0.00032
                ],
                [
                    -0.18137,
                    0.0,
                    -2.44558
                ]
            ],
            [
                [
                    -1.97561,
                    0.19142,
                    0.12911
                ],
                [
                    0.21392,
                    -2.32889,
                    -0.33376
                ],
                [
                    0.10678,
                    -0.34413,
                    -1.92079
                ]
            ],
            [
                [
                    -2.80029,
                    0.0,
                    -0.04547
                ],
                [
                    -8e-05,
                    -1.64233,
                    6e-05
                ],
                [
                    -0.02335,
                    0.0,
                    -1.67973
                ]
            ],
            [
                [
                    -1.97558,
                    0.19171,
                    -0.12925
                ],
                [
                    0.21387,
                    -2.32899,
                    0.33381
                ],
                [
                    -0.10678,
                    0.34413,
                    -1.92079
                ]
            ],
            [
                [
                    -1.97561,
                    -0.19142,
                    -0.12911
                ],
                [
                    -0.21387,
                    -2.32899,
                    -0.33381
                ],
                [
                    -0.10674,
                    -0.34403,
                    -1.92077
                ]
            ],
            [
                [
                    -1.97561,
                    -0.19142,
                    0.12911
                ],
                [
                    -0.21387,
                    -2.32899,
                    0.33381
                ],
                [
                    0.10678,
                    0.34413,
                    -1.92079
                ]
            ],
            [
                [
                    -1.97558,
                    0.19171,
                    0.12925
                ],
                [
                    0.21387,
                    -2.32899,
                    -0.33381
                ],
                [
                    0.10674,
                    -0.34403,
                    -1.92077
                ]
            ],
            [
                [
                    -1.97558,
                    -0.19171,
                    0.12925
                ],
                [
                    -0.21392,
                    -2.32889,
                    0.33376
                ],
                [
                    0.10674,
                    0.34403,
                    -1.92077
                ]
            ]
        ]
    },
    "band_gap": 4.7692,
    "is_direct": true,
    "formula": "Ba2SiO4"
}