{
    "mp_id": "mp-1211738",
    "nelements": 5,
    "nsites": 14,
    "elements": [
        "K",
        "La",
        "O",
        "Rb",
        "V"
    ],
    "structure": {
        "@module": "pymatgen.core.structure",
        "@class": "Structure",
        "charge": null,
        "lattice": {
            "matrix": [
                [
                    6.09142174,
                    0.0,
                    0.0
                ],
                [
                    -3.04571087,
                    5.27532553,
                    0.0
                ],
                [
                    0.0,
                    0.0,
                    7.77900151
                ]
            ],
            "a": 6.09142174,
            "b": 6.091421357212612,
            "c": 7.77900151,
            "alpha": 90.0,
            "beta": 90.0,
            "gamma": 120.0000020787439,
            "volume": 249.97224406604022
        },
        "sites": [
            {
                "species": [
                    {
                        "element": "K",
                        "occu": 1
                    }
                ],
                "abc": [
                    0.333333,
                    0.666667,
                    0.69115831
                ],
                "xyz": [
                    -3.0457108701753555e-06,
                    3.51688544510851,
                    5.376521537139048
                ],
                "label": "K",
                "properties": {}
            },
            {
                "species": [
                    {
                        "element": "K",
                        "occu": 1
                    }
                ],
                "abc": [
                    0.666667,
                    0.333333,
                    0.30884169
                ],
                "xyz": [
                    3.045713915710871,
                    1.7584400848914898,
                    2.402479972860952
                ],
                "label": "K",
                "properties": {}
            },
            {
                "species": [
                    {
                        "element": "Rb",
                        "occu": 1
                    }
                ],
                "abc": [
                    0.0,
                    0.0,
                    0.0
                ],
                "xyz": [
                    0.0,
                    0.0,
                    0.0
                ],
                "label": "Rb",
                "properties": {}
            },
            {
                "species": [
                    {
                        "element": "La",
                        "occu": 1
                    }
                ],
                "abc": [
                    0.0,
                    0.0,
                    0.5
                ],
                "xyz": [
                    0.0,
                    0.0,
                    3.889500755
                ],
                "label": "La",
                "properties": {}
            },
            {
                "species": [
                    {
                        "element": "V",
                        "occu": 1
                    }
                ],
                "abc": [
                    0.333333,
                    0.666667,
                    0.23650866
                ],
                "xyz": [
                    -3.0457108701753555e-06,
                    3.51688544510851,
                    1.8398012232680765
                ],
                "label": "V",
                "properties": {}
            },
            {
                "species": [
                    {
                        "element": "V",
                        "occu": 1
                    }
                ],
                "abc": [
                    0.666667,
                    0.333333,
                    0.76349134
                ],
                "xyz": [
                    3.045713915710871,
                    1.7584400848914898,
                    5.939200286731923
                ],
                "label": "V",
                "properties": {}
            },
            {
                "species": [
                    {
                        "element": "O",
                        "occu": 1
                    }
                ],
                "abc": [
                    0.333333,
                    0.666667,
                    0.02246272
                ],
                "xyz": [
                    -3.0457108701753555e-06,
                    3.51688544510851,
                    0.17473753279870718
                ],
                "label": "O",
                "properties": {}
            },
            {
                "species": [
                    {
                        "element": "O",
                        "occu": 1
                    }
                ],
                "abc": [
                    0.666667,
                    0.333333,
                    0.97753728
                ],
                "xyz": [
                    3.045713915710871,
                    1.7584400848914898,
                    7.604263977201292
                ],
                "label": "O",
                "properties": {}
            },
            {
                "species": [
                    {
                        "element": "O",
                        "occu": 1
                    }
                ],
                "abc": [
                    0.17803221,
                    0.82196779,
                    0.31582403
                ],
                "xyz": [
                    -1.419006958378632,
                    4.336147667424679,
                    2.456795606264285
                ],
                "label": "O",
                "properties": {}
            },
            {
                "species": [
                    {
                        "element": "O",
                        "occu": 1
                    }
                ],
                "abc": [
                    0.82196779,
                    0.17803221,
                    0.68417597
                ],
                "xyz": [
                    4.464717828378632,
                    0.9391778625753213,
                    5.322205903735714
                ],
                "label": "O",
                "properties": {}
            },
            {
                "species": [
                    {
                        "element": "O",
                        "occu": 1
                    }
                ],
                "abc": [
                    0.17803221,
                    0.35606442,
                    0.31582403
                ],
                "xyz": [
                    0.0,
                    1.8783557251506426,
                    2.456795606264285
                ],
                "label": "O",
                "properties": {}
            },
            {
                "species": [
                    {
                        "element": "O",
                        "occu": 1
                    }
                ],
                "abc": [
                    0.82196779,
                    0.64393558,
                    0.68417597
                ],
                "xyz": [
                    3.0457108700000006,
                    3.3969698048493573,
                    5.322205903735714
                ],
                "label": "O",
                "properties": {}
            },
            {
                "species": [
                    {
                        "element": "O",
                        "occu": 1
                    }
                ],
                "abc": [
                    0.64393558,
                    0.82196779,
                    0.31582403
                ],
                "xyz": [
                    1.4190069583786316,
                    4.336147667424679,
                    2.456795606264285
                ],
                "label": "O",
                "properties": {}
            },
            {
                "species": [
                    {
                        "element": "O",
                        "occu": 1
                    }
                ],
                "abc": [
                    0.35606442,
                    0.17803221,
                    0.68417597
                ],
                "xyz": [
                    1.6267039116213682,
                    0.9391778625753213,
                    5.322205903735714
                ],
                "label": "O",
                "properties": {}
            }
        ]
    },
    "spacegroup": {
        "source": "spglib",
        "symbol": "P-3m1",
        "number": 164,
        "point_group": "-3m",
        "crystal_system": "trigonal",
        "hall": "-P 3 2\""
    },
    "dielectric": {
        "epsilon_ionic": [
            [
                21.38924353,
                1e-08,
                0.0
            ],
            [
                1e-08,
                21.39401695,
                0.0001402
            ],
            [
                0.0,
                0.0001402,
                4.74866927
            ]
        ],
        "epsilon_ionic_avg": 15.843976583333331,
        "epsilon_ionic_eig": [
            21.38924352999998,
            21.394016951180888,
            4.748669268819127
        ],
        "epsilon_electronic": [
            [
                3.44496981,
                0.0,
                -0.0
            ],
            [
                -0.0,
                3.44496956,
                0.0
            ],
            [
                -0.0,
                0.0,
                3.32338952
            ]
        ],
        "epsilon_electronic_avg": 3.404442963333333,
        "epsilon_electronic_eig": [
            3.44496981,
            3.44496956,
            3.32338952
        ]
    },
    "phonon": {
        "lowest_freq": -0.11933738420053475,
        "frequency": [
            -0.11933738420053475,
            -0.11933737979738568,
            -0.05504401095615555,
            0.432198803168145,
            0.4898120946614698,
            0.4898121118758352,
            0.7172507879999436,
            0.717250805037229,
            1.9600949384695368,
            2.322952454651544,
            2.3229525125175887,
            2.7327024640536703,
            2.9521334577750564,
            2.952133565398973,
            3.064428134237378,
            3.0644282419051576,
            3.5581454045521714,
            4.053823286753646,
            4.249565202194557,
            4.249565351725226,
            4.8866319270449114,
            4.886632109596099,
            5.856289933458602,
            6.312703576263941,
            8.689589051274263,
            8.68958913565114,
            9.258912335695795,
            9.258912414884403,
            10.088150351000934,
            10.228295210105735,
            10.228295401261835,
            10.425816906508873,
            10.599177780849473,
            10.599177988375114,
            21.82930921403993,
            21.82930977383806,
            21.968845026366445,
            21.968845582609,
            23.938842837206366,
            25.49772836426313,
            27.359124695217506,
            28.047251473586194
        ]
    },
    "born_effective_charge": {
        "avg_abs_trace": 2.2780726190476193,
        "tensors": [
            [
                [
                    1.15703,
                    1e-05,
                    -0.0
                ],
                [
                    -0.0,
                    1.15679,
                    0.00017
                ],
                [
                    -0.0,
                    -0.0,
                    1.36466
                ]
            ],
            [
                [
                    1.15703,
                    -1e-05,
                    0.0
                ],
                [
                    -0.0,
                    1.15682,
                    0.00017
                ],
                [
                    -0.0,
                    -0.0,
                    1.36473
                ]
            ],
            [
                [
                    1.2788,
                    0.0,
                    -0.0
                ],
                [
                    -0.0,
                    1.27905,
                    -8e-05
                ],
                [
                    -0.0,
                    -0.0,
                    1.27485
                ]
            ],
            [
                [
                    5.26665,
                    0.0,
                    -0.0
                ],
                [
                    -0.0,
                    5.26675,
                    -0.0
                ],
                [
                    -0.0,
                    -0.0,
                    4.62156
                ]
            ],
            [
                [
                    3.66688,
                    -0.00035,
                    8e-05
                ],
                [
                    -0.0,
                    3.66683,
                    0.00018
                ],
                [
                    -0.0,
                    -0.0,
                    3.41377
                ]
            ],
            [
                [
                    3.66688,
                    0.00035,
                    -8e-05
                ],
                [
                    -0.0,
                    3.66678,
                    0.00021
                ],
                [
                    -0.0,
                    -0.0,
                    3.41367
                ]
            ],
            [
                [
                    -0.6916,
                    -6e-05,
                    -5e-05
                ],
                [
                    -0.0,
                    -0.69152,
                    -0.00025
                ],
                [
                    -0.0,
                    -0.0,
                    -3.17429
                ]
            ],
            [
                [
                    -0.6916,
                    6e-05,
                    5e-05
                ],
                [
                    -0.0,
                    -0.69169,
                    -0.0002
                ],
                [
                    -0.0,
                    -0.0,
                    -3.17288
                ]
            ],
            [
                [
                    -3.22284,
                    1.30744,
                    1.33882
                ],
                [
                    1.30689,
                    -1.71376,
                    -0.77295
                ],
                [
                    1.01119,
                    -0.58381,
                    -1.51784
                ]
            ],
            [
                [
                    -3.2231,
                    1.30702,
                    1.33866
                ],
                [
                    1.30698,
                    -1.71372,
                    -0.77296
                ],
                [
                    1.01123,
                    -0.58384,
                    -1.51751
                ]
            ],
            [
                [
                    -0.95909,
                    5e-05,
                    -0.00021
                ],
                [
                    -0.0,
                    -3.97742,
                    1.5458
                ],
                [
                    -0.0,
                    1.16762,
                    -1.51784
                ]
            ],
            [
                [
                    -0.95909,
                    -5e-05,
                    0.00021
                ],
                [
                    -0.0,
                    -3.97745,
                    1.5458
                ],
                [
                    -0.0,
                    1.16767,
                    -1.51751
                ]
            ],
            [
                [
                    -3.2231,
                    -1.30702,
                    -1.33866
                ],
                [
                    -1.30689,
                    -1.71376,
                    -0.77295
                ],
                [
                    -1.01119,
                    -0.58381,
                    -1.51784
                ]
            ],
            [
                [
                    -3.22284,
                    -1.30744,
                    -1.33882
                ],
                [
                    -1.30698,
                    -1.71372,
                    -0.77296
                ],
                [
                    -1.01123,
                    -0.58384,
                    -1.51751
                ]
            ]
        ]
    },
    "band_gap": 3.5690999999999997,
    "is_direct": false,
    "formula": "K2RbLaV2O8"
}