{
    "mp_id": "mp-1211258",
    "nelements": 4,
    "nsites": 23,
    "elements": [
        "Ga",
        "La",
        "O",
        "Ti"
    ],
    "structure": {
        "@module": "pymatgen.core.structure",
        "@class": "Structure",
        "charge": null,
        "lattice": {
            "matrix": [
                [
                    8.20860606,
                    0.0,
                    0.0
                ],
                [
                    -4.10430303,
                    7.10886153,
                    0.0
                ],
                [
                    0.0,
                    0.0,
                    5.10561788
                ]
            ],
            "a": 8.20860606,
            "b": 8.208606191965913,
            "c": 5.10561788,
            "alpha": 90.0,
            "beta": 90.0,
            "gamma": 119.99999946819264,
            "volume": 297.9324284499832
        },
        "sites": [
            {
                "species": [
                    {
                        "element": "La",
                        "occu": 1
                    }
                ],
                "abc": [
                    0.57666497,
                    0.0,
                    0.0
                ],
                "xyz": [
                    4.733615567331718,
                    0.0,
                    0.0
                ],
                "label": "La",
                "properties": {}
            },
            {
                "species": [
                    {
                        "element": "La",
                        "occu": 1
                    }
                ],
                "abc": [
                    0.0,
                    0.57666497,
                    0.0
                ],
                "xyz": [
                    -2.366807783665859,
                    4.099431420931605,
                    0.0
                ],
                "label": "La",
                "properties": {}
            },
            {
                "species": [
                    {
                        "element": "La",
                        "occu": 1
                    }
                ],
                "abc": [
                    0.42333503,
                    0.42333503,
                    0.0
                ],
                "xyz": [
                    1.7374952463341407,
                    3.009430109068396,
                    0.0
                ],
                "label": "La",
                "properties": {}
            },
            {
                "species": [
                    {
                        "element": "Ti",
                        "occu": 1
                    }
                ],
                "abc": [
                    0.0,
                    0.0,
                    0.0
                ],
                "xyz": [
                    0.0,
                    0.0,
                    0.0
                ],
                "label": "Ti",
                "properties": {}
            },
            {
                "species": [
                    {
                        "element": "Ga",
                        "occu": 1
                    }
                ],
                "abc": [
                    0.333333,
                    0.666667,
                    0.53155952
                ],
                "xyz": [
                    -4.104303029883738e-06,
                    4.73924338962051,
                    2.713939789596217
                ],
                "label": "Ga",
                "properties": {}
            },
            {
                "species": [
                    {
                        "element": "Ga",
                        "occu": 1
                    }
                ],
                "abc": [
                    0.666667,
                    0.333333,
                    0.46844048
                ],
                "xyz": [
                    4.1043071343030295,
                    2.3696181403794903,
                    2.391678090403782
                ],
                "label": "Ga",
                "properties": {}
            },
            {
                "species": [
                    {
                        "element": "Ga",
                        "occu": 1
                    }
                ],
                "abc": [
                    0.23982115,
                    0.0,
                    0.5
                ],
                "xyz": [
                    1.968597345206169,
                    0.0,
                    2.55280894
                ],
                "label": "Ga",
                "properties": {}
            },
            {
                "species": [
                    {
                        "element": "Ga",
                        "occu": 1
                    }
                ],
                "abc": [
                    0.0,
                    0.23982115,
                    0.5
                ],
                "xyz": [
                    -0.9842986726030845,
                    1.7048553473153596,
                    2.55280894
                ],
                "label": "Ga",
                "properties": {}
            },
            {
                "species": [
                    {
                        "element": "Ga",
                        "occu": 1
                    }
                ],
                "abc": [
                    0.76017885,
                    0.76017885,
                    0.5
                ],
                "xyz": [
                    3.120004357396915,
                    5.404006182684641,
                    2.55280894
                ],
                "label": "Ga",
                "properties": {}
            },
            {
                "species": [
                    {
                        "element": "O",
                        "occu": 1
                    }
                ],
                "abc": [
                    0.14400484,
                    0.21953822,
                    0.23741316
                ],
                "xyz": [
                    0.28102762074652377,
                    1.5606668065226768,
                    1.2121408746433007
                ],
                "label": "O",
                "properties": {}
            },
            {
                "species": [
                    {
                        "element": "O",
                        "occu": 1
                    }
                ],
                "abc": [
                    0.78046178,
                    0.92446662,
                    0.23741316
                ],
                "xyz": [
                    2.6122121473065283,
                    6.571905190687129,
                    1.2121408746433007
                ],
                "label": "O",
                "properties": {}
            },
            {
                "species": [
                    {
                        "element": "O",
                        "occu": 1
                    }
                ],
                "abc": [
                    0.21953822,
                    0.14400484,
                    0.76258684
                ],
                "xyz": [
                    1.211063261946948,
                    1.0237104672098052,
                    3.893477005356699
                ],
                "label": "O",
                "properties": {}
            },
            {
                "species": [
                    {
                        "element": "O",
                        "occu": 1
                    }
                ],
                "abc": [
                    0.07553338,
                    0.85599516,
                    0.23741316
                ],
                "xyz": [
                    -2.8932397680530517,
                    6.085151062790195,
                    1.2121408746433007
                ],
                "label": "O",
                "properties": {}
            },
            {
                "species": [
                    {
                        "element": "O",
                        "occu": 1
                    }
                ],
                "abc": [
                    0.92446662,
                    0.78046178,
                    0.76258684
                ],
                "xyz": [
                    4.385330650746523,
                    5.548194723477324,
                    3.893477005356699
                ],
                "label": "O",
                "properties": {}
            },
            {
                "species": [
                    {
                        "element": "O",
                        "occu": 1
                    }
                ],
                "abc": [
                    0.85599516,
                    0.07553338,
                    0.76258684
                ],
                "xyz": [
                    6.716515177306527,
                    0.5369563393128715,
                    3.893477005356699
                ],
                "label": "O",
                "properties": {}
            },
            {
                "species": [
                    {
                        "element": "O",
                        "occu": 1
                    }
                ],
                "abc": [
                    0.333333,
                    0.666667,
                    0.17755682
                ],
                "xyz": [
                    -4.104303029883738e-06,
                    4.73924338962051,
                    0.9065372749079416
                ],
                "label": "O",
                "properties": {}
            },
            {
                "species": [
                    {
                        "element": "O",
                        "occu": 1
                    }
                ],
                "abc": [
                    0.666667,
                    0.333333,
                    0.82244318
                ],
                "xyz": [
                    4.1043071343030295,
                    2.3696181403794903,
                    4.199080605092059
                ],
                "label": "O",
                "properties": {}
            },
            {
                "species": [
                    {
                        "element": "O",
                        "occu": 1
                    }
                ],
                "abc": [
                    0.45593256,
                    0.14623659,
                    0.29988655
                ],
                "xyz": [
                    3.1423714955334456,
                    1.0395756689293827,
                    1.5311061316515138
                ],
                "label": "O",
                "properties": {}
            },
            {
                "species": [
                    {
                        "element": "O",
                        "occu": 1
                    }
                ],
                "abc": [
                    0.85376341,
                    0.30969597,
                    0.29988655
                ],
                "xyz": [
                    5.737121393082475,
                    2.201585767129034,
                    1.5311061316515138
                ],
                "label": "O",
                "properties": {}
            },
            {
                "species": [
                    {
                        "element": "O",
                        "occu": 1
                    }
                ],
                "abc": [
                    0.14623659,
                    0.45593256,
                    0.70011345
                ],
                "xyz": [
                    -0.6708868286159213,
                    3.241161436058417,
                    3.574511748348486
                ],
                "label": "O",
                "properties": {}
            },
            {
                "species": [
                    {
                        "element": "O",
                        "occu": 1
                    }
                ],
                "abc": [
                    0.69030403,
                    0.54406744,
                    0.29988655
                ],
                "xyz": [
                    3.4334162013840785,
                    3.867700093941583,
                    1.5311061316515138
                ],
                "label": "O",
                "properties": {}
            },
            {
                "species": [
                    {
                        "element": "O",
                        "occu": 1
                    }
                ],
                "abc": [
                    0.30969597,
                    0.85376341,
                    0.70011345
                ],
                "xyz": [
                    -0.9619315344665544,
                    6.069285861070617,
                    3.574511748348486
                ],
                "label": "O",
                "properties": {}
            },
            {
                "species": [
                    {
                        "element": "O",
                        "occu": 1
                    }
                ],
                "abc": [
                    0.54406744,
                    0.69030403,
                    0.70011345
                ],
                "xyz": [
                    1.6328183630824746,
                    4.907275762870966,
                    3.574511748348486
                ],
                "label": "O",
                "properties": {}
            }
        ]
    },
    "spacegroup": {
        "source": "spglib",
        "symbol": "P321",
        "number": 150,
        "point_group": "32",
        "crystal_system": "trigonal",
        "hall": "P 3 2\""
    },
    "dielectric": {
        "epsilon_ionic": [
            [
                15.60216456,
                -0.00068031,
                -0.0
            ],
            [
                -0.00068031,
                15.60555921,
                -0.00970553
            ],
            [
                -0.0,
                -0.00970553,
                41.92473878
            ]
        ],
        "epsilon_ionic_avg": 24.377487516666662,
        "epsilon_ionic_eig": [
            15.602033168498254,
            15.605687022465418,
            41.92474235903632
        ],
        "epsilon_electronic": [
            [
                4.26367207,
                0.0,
                0.0
            ],
            [
                -0.0,
                4.26367168,
                0.0
            ],
            [
                0.0,
                -0.0,
                4.46151903
            ]
        ],
        "epsilon_electronic_avg": 4.329620926666666,
        "epsilon_electronic_eig": [
            4.26367207,
            4.26367168,
            4.46151903
        ]
    },
    "phonon": {
        "lowest_freq": -0.2607505819101136,
        "frequency": [
            -0.2607505819101136,
            -0.08395154833606401,
            -0.08395154455149798,
            1.1020330354804084,
            2.7247563523745915,
            2.7247563568593987,
            2.9918257179359493,
            2.9918257383582727,
            3.2381656980097673,
            3.238165716878484,
            3.296109744769834,
            3.5265764195812683,
            3.526576423046387,
            3.61647045778027,
            4.278669256534411,
            4.685268779325646,
            4.933823587542002,
            4.933823656891905,
            5.125775958925466,
            5.183941064939037,
            5.183941159230282,
            5.926858148181552,
            6.008700898160047,
            6.008700979508789,
            6.060048550497475,
            6.6286269914591145,
            6.6286270098943145,
            7.013818525545719,
            7.013818525545719,
            7.1330638218948215,
            7.922157517491049,
            7.922157748867534,
            8.115041206533213,
            8.623922654538525,
            8.623922654538525,
            9.001497993360188,
            9.001498142690968,
            9.350830551407737,
            9.350830655954658,
            9.935186319128077,
            10.254560158815432,
            10.25456024223202,
            11.294170730165336,
            12.377616236510784,
            12.3776163747281,
            13.786865348133068,
            13.78686546335874,
            13.858556515298138,
            14.379077237595277,
            14.379077246093741,
            14.78355281154216,
            15.060935339919386,
            16.488102179331555,
            16.488102253445643,
            17.280797390238803,
            17.280797531667538,
            17.441244594416165,
            17.512723901146316,
            18.62451550496061,
            18.62451557057309,
            19.135623616715428,
            19.28290026513645,
            20.00319954647183,
            20.003199729742608,
            20.48026120530106,
            21.009697565873406,
            21.009697624037052,
            21.51826850859343,
            22.00997659220085
        ]
    },
    "born_effective_charge": {
        "avg_abs_trace": 2.7774334782608694,
        "tensors": [
            [
                [
                    4.86934,
                    0.0,
                    0.0
                ],
                [
                    -0.00063,
                    4.11249,
                    0.21887
                ],
                [
                    1e-05,
                    0.16975,
                    3.56247
                ]
            ],
            [
                [
                    4.30114,
                    -0.32807,
                    -0.18918
                ],
                [
                    -0.32779,
                    4.67978,
                    -0.10961
                ],
                [
                    -0.14701,
                    -0.08486,
                    3.56247
                ]
            ],
            [
                [
                    4.30114,
                    0.32807,
                    0.18918
                ],
                [
                    0.32702,
                    4.67923,
                    -0.10981
                ],
                [
                    0.147,
                    -0.08488,
                    3.56247
                ]
            ],
            [
                [
                    4.41677,
                    0.0,
                    0.0
                ],
                [
                    0.00056,
                    4.41759,
                    -9e-05
                ],
                [
                    0.0,
                    0.0,
                    5.55293
                ]
            ],
            [
                [
                    2.49868,
                    0.08802,
                    1e-05
                ],
                [
                    -0.0881,
                    2.49913,
                    -7e-05
                ],
                [
                    0.0,
                    0.0,
                    2.9497
                ]
            ],
            [
                [
                    2.49868,
                    -0.08802,
                    -1e-05
                ],
                [
                    0.08785,
                    2.49925,
                    -2e-05
                ],
                [
                    0.0,
                    0.0,
                    2.94962
                ]
            ],
            [
                [
                    3.25262,
                    0.0,
                    0.0
                ],
                [
                    0.00012,
                    2.46876,
                    -0.32116
                ],
                [
                    -4e-05,
                    0.09746,
                    3.58142
                ]
            ],
            [
                [
                    2.66485,
                    -0.33927,
                    0.27779
                ],
                [
                    -0.33921,
                    3.05668,
                    0.16047
                ],
                [
                    -0.08438,
                    -0.04876,
                    3.58142
                ]
            ],
            [
                [
                    2.66485,
                    0.33927,
                    -0.27779
                ],
                [
                    0.33954,
                    3.05657,
                    0.16069
                ],
                [
                    0.08442,
                    -0.0487,
                    3.58142
                ]
            ],
            [
                [
                    -1.90266,
                    -0.32395,
                    0.47058
                ],
                [
                    -0.34224,
                    -2.64423,
                    -0.51616
                ],
                [
                    0.37535,
                    -0.50343,
                    -2.61088
                ]
            ],
            [
                [
                    -2.74745,
                    -0.14536,
                    0.21173
                ],
                [
                    -0.16406,
                    -1.79881,
                    0.66555
                ],
                [
                    0.24831,
                    0.57677,
                    -2.61088
                ]
            ],
            [
                [
                    -2.17039,
                    -0.497,
                    0.68232
                ],
                [
                    -0.47873,
                    -2.37669,
                    -0.14896
                ],
                [
                    0.62323,
                    -0.07322,
                    -2.61074
                ]
            ],
            [
                [
                    -2.17039,
                    0.497,
                    -0.68232
                ],
                [
                    0.47878,
                    -2.37677,
                    -0.14897
                ],
                [
                    -0.62365,
                    -0.07335,
                    -2.61088
                ]
            ],
            [
                [
                    -1.90266,
                    0.32395,
                    -0.47058
                ],
                [
                    0.34233,
                    -2.6441,
                    -0.51629
                ],
                [
                    -0.37503,
                    -0.50312,
                    -2.61074
                ]
            ],
            [
                [
                    -2.74745,
                    0.14536,
                    -0.21173
                ],
                [
                    0.16385,
                    -1.79924,
                    0.66559
                ],
                [
                    -0.2482,
                    0.57634,
                    -2.61074
                ]
            ],
            [
                [
                    -2.18681,
                    -0.09318,
                    0.0001
                ],
                [
                    0.09315,
                    -2.18793,
                    -0.00022
                ],
                [
                    0.0,
                    0.0,
                    -2.29287
                ]
            ],
            [
                [
                    -2.18681,
                    0.09318,
                    -0.0001
                ],
                [
                    -0.093,
                    -2.18779,
                    -3e-05
                ],
                [
                    0.0,
                    0.0,
                    -2.29293
                ]
            ],
            [
                [
                    -2.32487,
                    -0.15587,
                    0.37016
                ],
                [
                    -0.25727,
                    -2.15978,
                    -0.10941
                ],
                [
                    0.30913,
                    -0.13376,
                    -2.10564
                ]
            ],
            [
                [
                    -2.38012,
                    0.226,
                    -0.09007
                ],
                [
                    0.12413,
                    -2.10451,
                    0.37493
                ],
                [
                    -0.03872,
                    0.33459,
                    -2.10564
                ]
            ],
            [
                [
                    -2.02173,
                    -0.08299,
                    0.28003
                ],
                [
                    0.01964,
                    -2.46255,
                    -0.2655
                ],
                [
                    0.27048,
                    -0.20072,
                    -2.10544
                ]
            ],
            [
                [
                    -2.02173,
                    0.08299,
                    -0.28003
                ],
                [
                    -0.01978,
                    -2.46267,
                    -0.26534
                ],
                [
                    -0.27041,
                    -0.20083,
                    -2.10564
                ]
            ],
            [
                [
                    -2.32487,
                    0.15587,
                    -0.37016
                ],
                [
                    0.25735,
                    -2.15969,
                    -0.1095
                ],
                [
                    -0.30907,
                    -0.13388,
                    -2.10544
                ]
            ],
            [
                [
                    -2.38012,
                    -0.226,
                    0.09007
                ],
                [
                    -0.12353,
                    -2.10472,
                    0.37504
                ],
                [
                    0.03859,
                    0.3346,
                    -2.10544
                ]
            ]
        ]
    },
    "band_gap": 3.4267,
    "is_direct": false,
    "formula": "La3TiGa5O14"
}