{
    "mp_id": "mp-19048",
    "nelements": 3,
    "nsites": 12,
    "elements": [
        "Ba",
        "O",
        "W"
    ],
    "structure": {
        "@module": "pymatgen.core.structure",
        "@class": "Structure",
        "charge": null,
        "lattice": {
            "matrix": [
                [
                    -2.81510325,
                    2.81510338,
                    6.31668892
                ],
                [
                    2.81510325,
                    -2.81510338,
                    6.31668892
                ],
                [
                    2.81510338,
                    2.81510325,
                    -6.31668892
                ]
            ],
            "a": 7.4666037969279415,
            "b": 7.4666037969279415,
            "c": 7.4666037969279415,
            "alpha": 135.7008324716698,
            "beta": 135.7008324716698,
            "gamma": 64.44319352303188,
            "volume": 200.2341540463243
        },
        "sites": [
            {
                "species": [
                    {
                        "element": "Ba",
                        "occu": 1
                    }
                ],
                "abc": [
                    0.25,
                    0.75,
                    0.5
                ],
                "xyz": [
                    2.815103315,
                    -6.50000000490536e-08,
                    3.15834446
                ],
                "label": "Ba",
                "properties": {}
            },
            {
                "species": [
                    {
                        "element": "Ba",
                        "occu": 1
                    }
                ],
                "abc": [
                    0.5,
                    0.5,
                    0.0
                ],
                "xyz": [
                    0.0,
                    0.0,
                    6.31668892
                ],
                "label": "Ba",
                "properties": {}
            },
            {
                "species": [
                    {
                        "element": "W",
                        "occu": 1
                    }
                ],
                "abc": [
                    0.75,
                    0.25,
                    0.5
                ],
                "xyz": [
                    6.50000000490536e-08,
                    2.815103315,
                    3.15834446
                ],
                "label": "W",
                "properties": {}
            },
            {
                "species": [
                    {
                        "element": "W",
                        "occu": 1
                    }
                ],
                "abc": [
                    0.0,
                    0.0,
                    0.0
                ],
                "xyz": [
                    0.0,
                    0.0,
                    0.0
                ],
                "label": "W",
                "properties": {}
            },
            {
                "species": [
                    {
                        "element": "O",
                        "occu": 1
                    }
                ],
                "abc": [
                    0.68933391,
                    0.04885952,
                    0.89674583
                ],
                "xyz": [
                    0.721430680203138,
                    4.327433720549386,
                    -1.0015261883194073
                ],
                "label": "O",
                "properties": {}
            },
            {
                "species": [
                    {
                        "element": "O",
                        "occu": 1
                    }
                ],
                "abc": [
                    0.54258808,
                    0.93933391,
                    0.14047539
                ],
                "xyz": [
                    1.5123332206527658,
                    -0.7214278000998877,
                    8.473500874991672
                ],
                "label": "O",
                "properties": {}
            },
            {
                "species": [
                    {
                        "element": "O",
                        "occu": 1
                    }
                ],
                "abc": [
                    0.79885952,
                    0.40211369,
                    0.85952461
                ],
                "xyz": [
                    1.3027701593472345,
                    3.536531050099888,
                    2.1568245883695116
                ],
                "label": "O",
                "properties": {}
            },
            {
                "species": [
                    {
                        "element": "O",
                        "occu": 1
                    }
                ],
                "abc": [
                    0.15211369,
                    0.79258808,
                    0.10325417
                ],
                "xyz": [
                    2.0936726997968624,
                    -1.512330470549386,
                    5.3151627316805925
                ],
                "label": "O",
                "properties": {}
            },
            {
                "species": [
                    {
                        "element": "O",
                        "occu": 1
                    }
                ],
                "abc": [
                    0.59788631,
                    0.45741192,
                    0.39674583
                ],
                "xyz": [
                    0.721430615203138,
                    1.5123304055493856,
                    4.159870648319409
                ],
                "label": "O",
                "properties": {}
            },
            {
                "species": [
                    {
                        "element": "O",
                        "occu": 1
                    }
                ],
                "abc": [
                    0.95114048,
                    0.84788631,
                    0.64047539
                ],
                "xyz": [
                    1.5123332856527658,
                    2.093675514900111,
                    7.3182087916304885
                ],
                "label": "O",
                "properties": {}
            },
            {
                "species": [
                    {
                        "element": "O",
                        "occu": 1
                    }
                ],
                "abc": [
                    0.20741192,
                    0.31066609,
                    0.35952461
                ],
                "xyz": [
                    1.3027700943472345,
                    0.721427735099888,
                    1.0015325050083281
                ],
                "label": "O",
                "properties": {}
            },
            {
                "species": [
                    {
                        "element": "O",
                        "occu": 1
                    }
                ],
                "abc": [
                    0.06066609,
                    0.20114048,
                    0.60325417
                ],
                "xyz": [
                    2.093672764796862,
                    1.3027728444506144,
                    -2.156818271680592
                ],
                "label": "O",
                "properties": {}
            }
        ]
    },
    "spacegroup": {
        "source": "spglib",
        "symbol": "I4_1/a",
        "number": 88,
        "point_group": "4/m",
        "crystal_system": "tetragonal",
        "hall": "I 4bw -1bw"
    },
    "dielectric": {
        "epsilon_ionic": [
            [
                6.09035484,
                -6.658e-05,
                -1e-08
            ],
            [
                -6.658e-05,
                6.09044628,
                -1e-08
            ],
            [
                -1e-08,
                -1e-08,
                4.31024913
            ]
        ],
        "epsilon_ionic_avg": 5.497016749999997,
        "epsilon_ionic_eig": [
            6.090319793578755,
            6.090481326421237,
            4.31024913
        ],
        "epsilon_electronic": [
            [
                3.50717374,
                -2.5e-07,
                0.0
            ],
            [
                2.5e-07,
                3.50717374,
                0.0
            ],
            [
                0.0,
                -0.0,
                3.51297379
            ]
        ],
        "epsilon_electronic_avg": 3.50910709,
        "epsilon_electronic_eig": [
            3.50717374,
            3.50717374,
            3.51297379
        ]
    },
    "phonon": {
        "lowest_freq": -0.04676442874674374,
        "frequency": [
            -0.04676442874674374,
            -0.04676442874674374,
            -0.014198660229296379,
            1.7134846763873763,
            2.297747111877912,
            2.297747111877912,
            2.9891303909054026,
            2.9891303909054026,
            3.050019675203915,
            3.050019675203915,
            3.4926543544341166,
            3.9389870890796197,
            3.982324086517034,
            3.982324086517034,
            4.562992969004975,
            5.775594922186713,
            5.775594922186713,
            5.82180713625804,
            7.494371845269933,
            8.576821497652906,
            8.576821497652906,
            9.438433104739904,
            9.519196357338664,
            9.901047981524304,
            9.91289638859843,
            9.91289638859843,
            10.796917272367283,
            11.177203466785647,
            22.76142011941344,
            22.76142011941344,
            22.96583182745129,
            23.097605081973438,
            23.097605081973438,
            23.808968540653733,
            26.288507333032477,
            26.301763148765783
        ]
    },
    "born_effective_charge": {
        "avg_abs_trace": 2.348043888888889,
        "tensors": [
            [
                [
                    3.04464,
                    -0.10886,
                    7e-05
                ],
                [
                    0.10886,
                    3.04467,
                    -5e-05
                ],
                [
                    -0.0,
                    -0.0,
                    2.93827
                ]
            ],
            [
                [
                    3.04464,
                    -0.10886,
                    -7e-05
                ],
                [
                    0.10886,
                    3.04467,
                    5e-05
                ],
                [
                    -0.0,
                    -0.0,
                    2.93827
                ]
            ],
            [
                [
                    3.97995,
                    0.13056,
                    -0.0001
                ],
                [
                    -0.13057,
                    3.97993,
                    1e-05
                ],
                [
                    -0.0,
                    -0.0,
                    4.14493
                ]
            ],
            [
                [
                    3.97995,
                    0.13056,
                    0.0001
                ],
                [
                    -0.13057,
                    3.97993,
                    -1e-05
                ],
                [
                    -0.0,
                    -0.0,
                    4.14493
                ]
            ],
            [
                [
                    -1.38471,
                    0.73538,
                    0.45821
                ],
                [
                    0.74614,
                    -2.1273,
                    -0.90911
                ],
                [
                    0.39753,
                    -0.94134,
                    -1.77074
                ]
            ],
            [
                [
                    -2.12734,
                    -0.74616,
                    -0.90903
                ],
                [
                    -0.73557,
                    -1.3849,
                    -0.45854
                ],
                [
                    -0.94134,
                    -0.39753,
                    -1.77074
                ]
            ],
            [
                [
                    -2.12764,
                    -0.74648,
                    0.90927
                ],
                [
                    -0.73533,
                    -1.38477,
                    0.45827
                ],
                [
                    0.94134,
                    0.39753,
                    -1.77074
                ]
            ],
            [
                [
                    -1.38491,
                    0.73555,
                    -0.45861
                ],
                [
                    0.74647,
                    -2.12763,
                    0.90923
                ],
                [
                    -0.39753,
                    0.94134,
                    -1.77074
                ]
            ],
            [
                [
                    -1.38471,
                    0.73538,
                    -0.45821
                ],
                [
                    0.74614,
                    -2.1273,
                    0.90911
                ],
                [
                    -0.39745,
                    0.94133,
                    -1.77086
                ]
            ],
            [
                [
                    -2.12734,
                    -0.74616,
                    0.90903
                ],
                [
                    -0.73557,
                    -1.3849,
                    0.45854
                ],
                [
                    0.94133,
                    0.39745,
                    -1.77086
                ]
            ],
            [
                [
                    -2.12764,
                    -0.74648,
                    -0.90927
                ],
                [
                    -0.73533,
                    -1.38477,
                    -0.45827
                ],
                [
                    -0.94133,
                    -0.39745,
                    -1.77086
                ]
            ],
            [
                [
                    -1.38491,
                    0.73555,
                    0.45861
                ],
                [
                    0.74647,
                    -2.12763,
                    -0.90923
                ],
                [
                    0.39745,
                    -0.94133,
                    -1.77086
                ]
            ]
        ]
    },
    "band_gap": 4.8236,
    "is_direct": false,
    "formula": "BaWO4"
}