{
    "mp_id": "mp-14333",
    "nelements": 3,
    "nsites": 12,
    "elements": [
        "Al",
        "O",
        "Ta"
    ],
    "structure": {
        "@module": "pymatgen.core.structure",
        "@class": "Structure",
        "charge": null,
        "lattice": {
            "matrix": [
                [
                    6.0983056,
                    -1.91357632,
                    -3.78e-05
                ],
                [
                    6.0983056,
                    1.91357632,
                    -3.78e-05
                ],
                [
                    -1.94916723,
                    0.0,
                    6.12563271
                ]
            ],
            "a": 6.391486957264713,
            "b": 6.391486957264713,
            "c": 6.428267961770715,
            "alpha": 106.81694714373842,
            "beta": 106.81694714373842,
            "gamma": 34.84248328623361,
            "volume": 142.9667564888282
        },
        "sites": [
            {
                "species": [
                    {
                        "element": "Ta",
                        "occu": 1
                    }
                ],
                "abc": [
                    0.10677431,
                    0.10677431,
                    0.22794619
                ],
                "xyz": [
                    0.8579795014669183,
                    0.0,
                    1.396306565446039
                ],
                "label": "Ta",
                "properties": {}
            },
            {
                "species": [
                    {
                        "element": "Ta",
                        "occu": 1
                    }
                ],
                "abc": [
                    0.89322569,
                    0.89322569,
                    0.77205381
                ],
                "xyz": [
                    9.389464468533081,
                    0.0,
                    4.7292505445539605
                ],
                "label": "Ta",
                "properties": {}
            },
            {
                "species": [
                    {
                        "element": "Al",
                        "occu": 1
                    }
                ],
                "abc": [
                    0.20095425,
                    0.20095425,
                    0.81888097
                ],
                "xyz": [
                    0.8548249042429865,
                    0.0,
                    5.016148863287229
                ],
                "label": "Al",
                "properties": {}
            },
            {
                "species": [
                    {
                        "element": "Al",
                        "occu": 1
                    }
                ],
                "abc": [
                    0.79904575,
                    0.79904575,
                    0.18111903
                ],
                "xyz": [
                    9.392619065757012,
                    0.0,
                    1.109408246712771
                ],
                "label": "Al",
                "properties": {}
            },
            {
                "species": [
                    {
                        "element": "O",
                        "occu": 1
                    }
                ],
                "abc": [
                    0.64152274,
                    0.64152274,
                    0.2023175
                ],
                "xyz": [
                    7.430052794683162,
                    0.0,
                    1.239274196686281
                ],
                "label": "O",
                "properties": {}
            },
            {
                "species": [
                    {
                        "element": "O",
                        "occu": 1
                    }
                ],
                "abc": [
                    0.35847726,
                    0.35847726,
                    0.7976825
                ],
                "xyz": [
                    2.8173911753168372,
                    0.0,
                    4.8862829133137184
                ],
                "label": "O",
                "properties": {}
            },
            {
                "species": [
                    {
                        "element": "O",
                        "occu": 1
                    }
                ],
                "abc": [
                    0.05905416,
                    0.05905416,
                    0.86771117
                ],
                "xyz": [
                    -0.971053548406367,
                    0.0,
                    5.3152754612898745
                ],
                "label": "O",
                "properties": {}
            },
            {
                "species": [
                    {
                        "element": "O",
                        "occu": 1
                    }
                ],
                "abc": [
                    0.94094584,
                    0.94094584,
                    0.13228883
                ],
                "xyz": [
                    11.218497518406366,
                    0.0,
                    0.8102816487101253
                ],
                "label": "O",
                "properties": {}
            },
            {
                "species": [
                    {
                        "element": "O",
                        "occu": 1
                    }
                ],
                "abc": [
                    0.8584407,
                    0.8584407,
                    0.47549775
                ],
                "xyz": [
                    9.543242823917106,
                    0.0,
                    2.9126596728144825
                ],
                "label": "O",
                "properties": {}
            },
            {
                "species": [
                    {
                        "element": "O",
                        "occu": 1
                    }
                ],
                "abc": [
                    0.1415593,
                    0.1415593,
                    0.52450225
                ],
                "xyz": [
                    0.7042011460828925,
                    0.0,
                    3.212897437185517
                ],
                "label": "O",
                "properties": {}
            },
            {
                "species": [
                    {
                        "element": "O",
                        "occu": 1
                    }
                ],
                "abc": [
                    0.73700761,
                    0.73700761,
                    0.857371
                ],
                "xyz": [
                    7.3178358134589025,
                    0.0,
                    5.251884124430093
                ],
                "label": "O",
                "properties": {}
            },
            {
                "species": [
                    {
                        "element": "O",
                        "occu": 1
                    }
                ],
                "abc": [
                    0.26299239,
                    0.26299239,
                    0.142629
                ],
                "xyz": [
                    2.9296081565410983,
                    0.0,
                    0.873672985569906
                ],
                "label": "O",
                "properties": {}
            }
        ]
    },
    "spacegroup": {
        "source": "spglib",
        "symbol": "C2/m",
        "number": 12,
        "point_group": "2/m",
        "crystal_system": "monoclinic",
        "hall": "-C 2y"
    },
    "dielectric": {
        "epsilon_ionic": [
            [
                6.65488844,
                -1e-08,
                0.86654182
            ],
            [
                -1e-08,
                9.84433168,
                4e-08
            ],
            [
                0.86654182,
                4e-08,
                6.42860517
            ]
        ],
        "epsilon_ionic_avg": 7.642608430000002,
        "epsilon_ionic_eig": [
            5.667849925854993,
            7.415643684145009,
            9.844331680000003
        ],
        "epsilon_electronic": [
            [
                3.67475962,
                0.0,
                0.11982002
            ],
            [
                0.0,
                3.95809863,
                0.0
            ],
            [
                0.1198196,
                0.0,
                3.90254856
            ]
        ],
        "epsilon_electronic_avg": 3.845135603333333,
        "epsilon_electronic_eig": [
            3.623340033837274,
            3.953968146162726,
            3.95809863
        ]
    },
    "phonon": {
        "lowest_freq": -0.01912171272910501,
        "frequency": [
            -0.01912171272910501,
            -0.014695346064908093,
            -0.00920156412023575,
            2.859302485442108,
            3.9401521179355568,
            5.035977050623322,
            6.108073878157398,
            6.374330118389712,
            6.925551074453181,
            7.2701103317809475,
            8.060046867940262,
            8.20403440172465,
            9.271889421181244,
            9.349447463269271,
            9.628893897301351,
            10.189492461366283,
            10.191287534414554,
            10.686698131969035,
            12.169710167936199,
            12.53307354065839,
            12.894791120506992,
            13.229316122494277,
            13.521296682662282,
            13.863549877695455,
            13.894440197000911,
            14.83792244937571,
            15.228327947771238,
            16.239259714801154,
            16.47485645112854,
            16.74996472379698,
            20.772268806535745,
            21.430541624276643,
            23.00132903186693,
            23.180948132223968,
            26.647246757265947,
            26.83956867027042
        ]
    },
    "born_effective_charge": {
        "avg_abs_trace": 3.0025383333333338,
        "tensors": [
            [
                [
                    4.80177,
                    0.0,
                    0.78661
                ],
                [
                    -0.00067,
                    6.60252,
                    0.00025
                ],
                [
                    0.42103,
                    0.0,
                    5.50645
                ]
            ],
            [
                [
                    4.80196,
                    0.0,
                    0.78663
                ],
                [
                    0.00067,
                    6.60252,
                    -0.00025
                ],
                [
                    0.4204,
                    0.0,
                    5.50637
                ]
            ],
            [
                [
                    3.54598,
                    0.0,
                    -0.4349
                ],
                [
                    0.00017,
                    2.88318,
                    0.00012
                ],
                [
                    -0.02033,
                    0.0,
                    3.68291
                ]
            ],
            [
                [
                    3.54595,
                    0.0,
                    -0.4349
                ],
                [
                    -0.00017,
                    2.88318,
                    -0.00012
                ],
                [
                    -0.02024,
                    0.0,
                    3.68291
                ]
            ],
            [
                [
                    -1.57381,
                    0.0,
                    0.02408
                ],
                [
                    0.00109,
                    -4.96876,
                    -0.00027
                ],
                [
                    -0.08312,
                    0.0,
                    -1.06464
                ]
            ],
            [
                [
                    -1.57382,
                    0.0,
                    0.02394
                ],
                [
                    -0.00109,
                    -4.96876,
                    0.00027
                ],
                [
                    -0.08313,
                    0.0,
                    -1.06471
                ]
            ],
            [
                [
                    -3.30643,
                    0.0,
                    -0.72842
                ],
                [
                    -6e-05,
                    -1.07061,
                    6e-05
                ],
                [
                    -0.5335,
                    0.0,
                    -2.33532
                ]
            ],
            [
                [
                    -3.30609,
                    0.0,
                    -0.72845
                ],
                [
                    6e-05,
                    -1.07061,
                    -6e-05
                ],
                [
                    -0.53408,
                    0.0,
                    -2.33566
                ]
            ],
            [
                [
                    -1.0344,
                    0.0,
                    -0.13812
                ],
                [
                    -0.0,
                    -1.12613,
                    0.00036
                ],
                [
                    0.04384,
                    0.0,
                    -3.97187
                ]
            ],
            [
                [
                    -1.03428,
                    0.0,
                    -0.138
                ],
                [
                    0.0,
                    -1.12613,
                    -0.00036
                ],
                [
                    0.04366,
                    0.0,
                    -3.97249
                ]
            ],
            [
                [
                    -2.4334,
                    0.0,
                    0.49073
                ],
                [
                    -0.00015,
                    -2.32019,
                    -1e-05
                ],
                [
                    0.17254,
                    0.0,
                    -1.81712
                ]
            ],
            [
                [
                    -2.43342,
                    0.0,
                    0.4908
                ],
                [
                    0.00015,
                    -2.32019,
                    1e-05
                ],
                [
                    0.17293,
                    0.0,
                    -1.81684
                ]
            ]
        ]
    },
    "band_gap": 4.3543,
    "is_direct": false,
    "formula": "TaAlO4"
}