{
    "mp_id": "mp-1223469",
    "nelements": 4,
    "nsites": 9,
    "elements": [
        "K",
        "Li",
        "O",
        "Zn"
    ],
    "structure": {
        "@module": "pymatgen.core.structure",
        "@class": "Structure",
        "charge": null,
        "lattice": {
            "matrix": [
                [
                    5.6850448,
                    -1.64242483,
                    -0.00018936
                ],
                [
                    5.6850448,
                    1.64242483,
                    -0.00018936
                ],
                [
                    -5.63696918,
                    0.0,
                    5.7167886
                ]
            ],
            "a": 5.917541190060681,
            "b": 5.917541190060681,
            "c": 8.028517511555906,
            "alpha": 132.41962796432094,
            "beta": 132.41962796432094,
            "gamma": 32.2282978734548,
            "volume": 106.75476232814215
        },
        "sites": [
            {
                "species": [
                    {
                        "element": "K",
                        "occu": 1
                    }
                ],
                "abc": [
                    0.9942743,
                    0.9942743,
                    0.9982787
                ],
                "xyz": [
                    5.677721613026814,
                    0.0,
                    5.706571740219924
                ],
                "label": "K",
                "properties": {}
            },
            {
                "species": [
                    {
                        "element": "Li",
                        "occu": 1
                    }
                ],
                "abc": [
                    0.1779214,
                    0.1779214,
                    0.80797012
                ],
                "xyz": [
                    -2.5315204050434614,
                    0.0,
                    4.6189269887640245
                ],
                "label": "Li",
                "properties": {}
            },
            {
                "species": [
                    {
                        "element": "Zn",
                        "occu": 1
                    }
                ],
                "abc": [
                    0.80242901,
                    0.80242901,
                    0.16004738
                ],
                "xyz": [
                    8.221507592939547,
                    0.0,
                    0.9146531415292007
                ],
                "label": "Zn",
                "properties": {}
            },
            {
                "species": [
                    {
                        "element": "Zn",
                        "occu": 1
                    }
                ],
                "abc": [
                    0.63328423,
                    0.63328423,
                    0.460522
                ],
                "xyz": [
                    4.604550116655048,
                    0.0,
                    2.6324670822456144
                ],
                "label": "Zn",
                "properties": {}
            },
            {
                "species": [
                    {
                        "element": "Zn",
                        "occu": 1
                    }
                ],
                "abc": [
                    0.37644508,
                    0.37644508,
                    0.55838321
                ],
                "xyz": [
                    1.1326253436796994,
                    0.0,
                    3.1920162020787086
                ],
                "label": "Zn",
                "properties": {}
            },
            {
                "species": [
                    {
                        "element": "O",
                        "occu": 1
                    }
                ],
                "abc": [
                    0.23499659,
                    0.23499659,
                    0.62883122
                ],
                "xyz": [
                    -0.8727699225673362,
                    0.0,
                    3.594806151911527
                ],
                "label": "O",
                "properties": {}
            },
            {
                "species": [
                    {
                        "element": "O",
                        "occu": 1
                    }
                ],
                "abc": [
                    0.77378301,
                    0.77378301,
                    0.3708763
                ],
                "xyz": [
                    6.707363881965262,
                    0.0,
                    2.1199283567486327
                ],
                "label": "O",
                "properties": {}
            },
            {
                "species": [
                    {
                        "element": "O",
                        "occu": 1
                    }
                ],
                "abc": [
                    0.40547248,
                    0.40547248,
                    0.18560784
                ],
                "xyz": [
                    3.5639927542878365,
                    0.0,
                    1.0609272232449984
                ],
                "label": "O",
                "properties": {}
            },
            {
                "species": [
                    {
                        "element": "O",
                        "occu": 1
                    }
                ],
                "abc": [
                    0.60139291,
                    0.60139291,
                    0.82948123
                ],
                "xyz": [
                    2.1621311426062437,
                    0.0,
                    4.741741080055102
                ],
                "label": "O",
                "properties": {}
            }
        ]
    },
    "spacegroup": {
        "source": "spglib",
        "symbol": "Cm",
        "number": 8,
        "point_group": "m",
        "crystal_system": "monoclinic",
        "hall": "C -2y"
    },
    "dielectric": {
        "epsilon_ionic": [
            [
                7.19005339,
                -2.9e-07,
                -0.80992789
            ],
            [
                -2.9e-07,
                4.83682315,
                1.4e-07
            ],
            [
                -0.80992789,
                1.4e-07,
                6.21509615
            ]
        ],
        "epsilon_ionic_avg": 6.080657563333335,
        "epsilon_ionic_eig": [
            7.647888787645476,
            5.757260752354567,
            4.836823149999963
        ],
        "epsilon_electronic": [
            [
                3.69124827,
                0.0,
                0.10231807
            ],
            [
                0.0,
                3.75949176,
                0.0
            ],
            [
                0.10230146,
                0.0,
                3.75769778
            ]
        ],
        "epsilon_electronic_avg": 3.7361459366666665,
        "epsilon_electronic_eig": [
            3.6169036413902003,
            3.8320424086097997,
            3.75949176
        ]
    },
    "phonon": {
        "lowest_freq": -0.06631008059841115,
        "frequency": [
            -0.06631008059841115,
            -0.04385212914601606,
            -0.04331823696011622,
            3.2327586737572096,
            3.556505593312362,
            3.68256612795763,
            3.8417628391025525,
            4.285008296855923,
            4.716656136358777,
            5.216949598815043,
            5.331035362823689,
            6.303285619982901,
            6.477047292189159,
            7.340842843597982,
            8.624693873188546,
            9.681471571979607,
            10.905765950039713,
            11.403554261351852,
            12.098806878030357,
            12.563455461279998,
            13.34262974440931,
            14.33433857435887,
            14.791806271112307,
            15.17079236950893,
            15.597492226438689,
            16.471736039956703,
            19.174713705134923
        ]
    },
    "born_effective_charge": {
        "avg_abs_trace": 1.7685233333333334,
        "tensors": [
            [
                [
                    1.21027,
                    0.0,
                    -0.02487
                ],
                [
                    0.0,
                    1.15121,
                    -0.0
                ],
                [
                    -0.00605,
                    0.0,
                    1.29929
                ]
            ],
            [
                [
                    0.97107,
                    0.0,
                    -0.094
                ],
                [
                    0.0,
                    0.91913,
                    -0.0
                ],
                [
                    -0.08136,
                    0.0,
                    1.06036
                ]
            ],
            [
                [
                    1.75871,
                    0.0,
                    -0.07258
                ],
                [
                    -0.0,
                    2.00784,
                    0.0
                ],
                [
                    -0.03352,
                    0.0,
                    2.13048
                ]
            ],
            [
                [
                    2.02718,
                    0.0,
                    0.36675
                ],
                [
                    -0.0,
                    2.07694,
                    0.0
                ],
                [
                    0.15545,
                    0.0,
                    1.61783
                ]
            ],
            [
                [
                    1.80606,
                    0.0,
                    0.15865
                ],
                [
                    -0.0,
                    2.02446,
                    -0.0
                ],
                [
                    0.38463,
                    0.0,
                    1.81424
                ]
            ],
            [
                [
                    -1.97231,
                    0.0,
                    0.0366
                ],
                [
                    0.0,
                    -2.25408,
                    -0.0
                ],
                [
                    0.0001,
                    0.0,
                    -1.66829
                ]
            ],
            [
                [
                    -2.06318,
                    0.0,
                    0.34015
                ],
                [
                    0.0,
                    -2.15939,
                    -0.0
                ],
                [
                    0.23075,
                    0.0,
                    -1.90575
                ]
            ],
            [
                [
                    -1.98363,
                    0.0,
                    -0.3736
                ],
                [
                    0.0,
                    -2.21056,
                    0.0
                ],
                [
                    -0.29203,
                    0.0,
                    -1.86603
                ]
            ],
            [
                [
                    -1.75417,
                    0.0,
                    -0.33709
                ],
                [
                    0.0,
                    -1.55555,
                    0.0
                ],
                [
                    -0.35797,
                    0.0,
                    -2.48212
                ]
            ]
        ]
    },
    "band_gap": 2.157,
    "is_direct": true,
    "formula": "KLiZn3O4"
}