{
    "mp_id": "mp-10326",
    "nelements": 3,
    "nsites": 11,
    "elements": [
        "O",
        "Re",
        "Zn"
    ],
    "structure": {
        "@module": "pymatgen.core.structure",
        "@class": "Structure",
        "charge": null,
        "lattice": {
            "matrix": [
                [
                    5.68682459,
                    0.0,
                    0.0
                ],
                [
                    -2.8434118,
                    4.92493439,
                    0.0
                ],
                [
                    0.0,
                    0.0,
                    6.42684569
                ]
            ],
            "a": 5.68682459,
            "b": 5.686824193711629,
            "c": 6.42684569,
            "alpha": 90.0,
            "beta": 90.0,
            "gamma": 119.99999654643409,
            "volume": 179.9981967853287
        },
        "sites": [
            {
                "species": [
                    {
                        "element": "Zn",
                        "occu": 1
                    }
                ],
                "abc": [
                    0.0,
                    0.0,
                    0.0
                ],
                "xyz": [
                    0.0,
                    0.0,
                    0.0
                ],
                "label": "Zn",
                "properties": {}
            },
            {
                "species": [
                    {
                        "element": "Re",
                        "occu": 1
                    }
                ],
                "abc": [
                    0.333333,
                    0.666667,
                    0.27307917
                ],
                "xyz": [
                    -2.5134121302006207e-06,
                    3.28329123497813,
                    1.7550376867432773
                ],
                "label": "Re",
                "properties": {}
            },
            {
                "species": [
                    {
                        "element": "Re",
                        "occu": 1
                    }
                ],
                "abc": [
                    0.666667,
                    0.333333,
                    0.72692083
                ],
                "xyz": [
                    2.84341530341213,
                    1.64164315502187,
                    4.671808003256722
                ],
                "label": "Re",
                "properties": {}
            },
            {
                "species": [
                    {
                        "element": "O",
                        "occu": 1
                    }
                ],
                "abc": [
                    0.666667,
                    0.333333,
                    0.45797746
                ],
                "xyz": [
                    2.84341530341213,
                    1.64164315502187,
                    2.9433504649181477
                ],
                "label": "O",
                "properties": {}
            },
            {
                "species": [
                    {
                        "element": "O",
                        "occu": 1
                    }
                ],
                "abc": [
                    0.333333,
                    0.666667,
                    0.54202254
                ],
                "xyz": [
                    -2.5134121302006207e-06,
                    3.28329123497813,
                    3.483495225081853
                ],
                "label": "O",
                "properties": {}
            },
            {
                "species": [
                    {
                        "element": "O",
                        "occu": 1
                    }
                ],
                "abc": [
                    0.83407817,
                    0.16592183,
                    0.81740417
                ],
                "xyz": [
                    4.2714721578386055,
                    0.8171541266187337,
                    5.253330466952527
                ],
                "label": "O",
                "properties": {}
            },
            {
                "species": [
                    {
                        "element": "O",
                        "occu": 1
                    }
                ],
                "abc": [
                    0.16592183,
                    0.33184366,
                    0.18259583
                ],
                "xyz": [
                    1.6426261162383327e-07,
                    1.6343082532374673,
                    1.1735152230474726
                ],
                "label": "O",
                "properties": {}
            },
            {
                "species": [
                    {
                        "element": "O",
                        "occu": 1
                    }
                ],
                "abc": [
                    0.66815634,
                    0.83407817,
                    0.18259583
                ],
                "xyz": [
                    1.4280601935759947,
                    4.107780263381266,
                    1.1735152230474726
                ],
                "label": "O",
                "properties": {}
            },
            {
                "species": [
                    {
                        "element": "O",
                        "occu": 1
                    }
                ],
                "abc": [
                    0.16592183,
                    0.83407817,
                    0.18259583
                ],
                "xyz": [
                    -1.4280593678386062,
                    4.107780263381266,
                    1.1735152230474726
                ],
                "label": "O",
                "properties": {}
            },
            {
                "species": [
                    {
                        "element": "O",
                        "occu": 1
                    }
                ],
                "abc": [
                    0.83407817,
                    0.66815634,
                    0.81740417
                ],
                "xyz": [
                    2.843412625737387,
                    3.2906261367625325,
                    5.253330466952527
                ],
                "label": "O",
                "properties": {}
            },
            {
                "species": [
                    {
                        "element": "O",
                        "occu": 1
                    }
                ],
                "abc": [
                    0.33184366,
                    0.16592183,
                    0.81740417
                ],
                "xyz": [
                    1.4153525964240052,
                    0.8171541266187337,
                    5.253330466952527
                ],
                "label": "O",
                "properties": {}
            }
        ]
    },
    "spacegroup": {
        "source": "spglib",
        "symbol": "P-3m1",
        "number": 164,
        "point_group": "-3m",
        "crystal_system": "trigonal",
        "hall": "-P 3 2\""
    },
    "dielectric": {
        "epsilon_ionic": [
            [
                2.76420746,
                -9e-08,
                -3e-08
            ],
            [
                -9e-08,
                2.76476724,
                -0.00013354
            ],
            [
                -3e-08,
                -0.00013354,
                1.26047467
            ]
        ],
        "epsilon_ionic_avg": 2.2631497899999995,
        "epsilon_ionic_eig": [
            2.764207459985532,
            2.764767251869164,
            1.2604746581453032
        ],
        "epsilon_electronic": [
            [
                3.08701203,
                0.0,
                0.0
            ],
            [
                -0.0,
                3.08701196,
                -0.0
            ],
            [
                -0.0,
                0.0,
                2.93286851
            ]
        ],
        "epsilon_electronic_avg": 3.0356308333333337,
        "epsilon_electronic_eig": [
            3.08701203,
            3.08701196,
            2.93286851
        ]
    },
    "phonon": {
        "lowest_freq": -0.06409246006624293,
        "frequency": [
            -0.06409246006624293,
            -0.0640924593035943,
            -0.05947399251960968,
            0.7278826546089658,
            0.7278826613243375,
            1.4847136353127737,
            3.0405087684237566,
            3.0405087885190887,
            3.2914894516555466,
            3.4746460193749096,
            3.4746460404763515,
            3.8375702713144193,
            5.31042517707751,
            5.310425223100215,
            5.803482291937305,
            9.283954691434149,
            9.283954744084154,
            9.465153744101048,
            9.555532325384867,
            9.555532402115329,
            9.648464928679784,
            9.64846497934072,
            10.039445312468592,
            10.052760178652724,
            10.052760202964466,
            26.79952888539765,
            26.79952902219117,
            28.05554206292757,
            28.05554219359701,
            28.64588161967524,
            28.879988211532623,
            30.154980996534228,
            30.566298555038276
        ]
    },
    "born_effective_charge": {
        "avg_abs_trace": 1.7536660606060608,
        "tensors": [
            [
                [
                    3.47689,
                    0.0,
                    0.0
                ],
                [
                    0.0,
                    3.4773,
                    -0.00034
                ],
                [
                    -0.0,
                    0.0,
                    2.75068
                ]
            ],
            [
                [
                    3.23945,
                    0.00041,
                    -5e-05
                ],
                [
                    0.0,
                    3.23849,
                    -3e-05
                ],
                [
                    -0.0,
                    0.0,
                    3.13753
                ]
            ],
            [
                [
                    3.23945,
                    -0.00041,
                    5e-05
                ],
                [
                    0.0,
                    3.23868,
                    -3e-05
                ],
                [
                    -0.0,
                    0.0,
                    3.13703
                ]
            ],
            [
                [
                    -0.43226,
                    0.0,
                    -1e-05
                ],
                [
                    0.0,
                    -0.43218,
                    -5e-05
                ],
                [
                    -0.0,
                    0.0,
                    -1.85919
                ]
            ],
            [
                [
                    -0.43226,
                    -0.0,
                    1e-05
                ],
                [
                    0.0,
                    -0.43225,
                    -0.0
                ],
                [
                    -0.0,
                    0.0,
                    -1.85446
                ]
            ],
            [
                [
                    -1.97808,
                    0.80178,
                    -0.74345
                ],
                [
                    0.80133,
                    -1.05235,
                    0.42906
                ],
                [
                    -0.64395,
                    0.37178,
                    -0.88558
                ]
            ],
            [
                [
                    -0.59002,
                    -0.00051,
                    -7e-05
                ],
                [
                    0.0,
                    -2.44045,
                    -0.85796
                ],
                [
                    0.0,
                    -0.74309,
                    -0.88495
                ]
            ],
            [
                [
                    -1.97808,
                    -0.80178,
                    0.74345
                ],
                [
                    -0.80127,
                    -1.0522,
                    0.42908
                ],
                [
                    0.64353,
                    0.37154,
                    -0.88495
                ]
            ],
            [
                [
                    -1.97753,
                    0.80186,
                    -0.74339
                ],
                [
                    0.80127,
                    -1.0522,
                    0.42908
                ],
                [
                    -0.64353,
                    0.37154,
                    -0.88495
                ]
            ],
            [
                [
                    -0.59002,
                    0.00051,
                    7e-05
                ],
                [
                    0.0,
                    -2.44048,
                    -0.85786
                ],
                [
                    -0.0,
                    -0.74357,
                    -0.88558
                ]
            ],
            [
                [
                    -1.97753,
                    -0.80186,
                    0.74339
                ],
                [
                    -0.80133,
                    -1.05235,
                    0.42906
                ],
                [
                    0.64395,
                    0.37178,
                    -0.88558
                ]
            ]
        ]
    },
    "band_gap": 4.0931,
    "is_direct": false,
    "formula": "Zn(ReO4)2"
}