{
    "mp_id": "mp-1191141",
    "nelements": 4,
    "nsites": 24,
    "elements": [
        "Li",
        "O",
        "Si",
        "Sr"
    ],
    "structure": {
        "@module": "pymatgen.core.structure",
        "@class": "Structure",
        "charge": null,
        "lattice": {
            "matrix": [
                [
                    5.01413639,
                    0.0,
                    0.0
                ],
                [
                    -2.5070682,
                    4.34236938,
                    0.0
                ],
                [
                    0.0,
                    0.0,
                    12.42872174
                ]
            ],
            "a": 5.01413639,
            "b": 5.014136295695683,
            "c": 12.42872174,
            "alpha": 90.0,
            "beta": 90.0,
            "gamma": 120.0000006881263,
            "volume": 270.6134459736468
        },
        "sites": [
            {
                "species": [
                    {
                        "element": "Sr",
                        "occu": 1
                    }
                ],
                "abc": [
                    0.41937739,
                    0.0,
                    0.833333
                ],
                "xyz": [
                    2.102815432342222,
                    0.0,
                    10.35726397375942
                ],
                "label": "Sr",
                "properties": {}
            },
            {
                "species": [
                    {
                        "element": "Sr",
                        "occu": 1
                    }
                ],
                "abc": [
                    0.58062261,
                    0.58062261,
                    0.5
                ],
                "xyz": [
                    1.4556604759257759,
                    2.521277842999682,
                    6.21436087
                ],
                "label": "Sr",
                "properties": {}
            },
            {
                "species": [
                    {
                        "element": "Sr",
                        "occu": 1
                    }
                ],
                "abc": [
                    0.0,
                    0.41937739,
                    0.166667
                ],
                "xyz": [
                    -1.051407718267998,
                    1.8210915370003182,
                    2.07145776624058
                ],
                "label": "Sr",
                "properties": {}
            },
            {
                "species": [
                    {
                        "element": "Li",
                        "occu": 1
                    }
                ],
                "abc": [
                    0.66444071,
                    0.59128191,
                    0.74561349
                ],
                "xyz": [
                    1.849212269212175,
                    2.5675644609319157,
                    9.267022592800272
                ],
                "label": "Li",
                "properties": {}
            },
            {
                "species": [
                    {
                        "element": "Li",
                        "occu": 1
                    }
                ],
                "abc": [
                    0.92684019,
                    0.33555929,
                    0.41227949
                ],
                "xyz": [
                    3.806033099219936,
                    1.4571223860705402,
                    5.124107060319113
                ],
                "label": "Li",
                "properties": {}
            },
            {
                "species": [
                    {
                        "element": "Li",
                        "occu": 1
                    }
                ],
                "abc": [
                    0.40871809,
                    0.07315981,
                    0.07894649
                ],
                "xyz": [
                    1.865951615151253,
                    0.31768691879061783,
                    0.9812039565596925
                ],
                "label": "Li",
                "properties": {}
            },
            {
                "species": [
                    {
                        "element": "Li",
                        "occu": 1
                    }
                ],
                "abc": [
                    0.33555929,
                    0.92684019,
                    0.58772051
                ],
                "xyz": [
                    -0.6411115198393944,
                    4.024682461209382,
                    7.3046146796808875
                ],
                "label": "Li",
                "properties": {}
            },
            {
                "species": [
                    {
                        "element": "Li",
                        "occu": 1
                    }
                ],
                "abc": [
                    0.59128191,
                    0.66444071,
                    0.25438651
                ],
                "xyz": [
                    1.2989699668532826,
                    2.88524699392946,
                    3.1616991471997276
                ],
                "label": "Li",
                "properties": {}
            },
            {
                "species": [
                    {
                        "element": "Li",
                        "occu": 1
                    }
                ],
                "abc": [
                    0.07315981,
                    0.40871809,
                    0.92105351
                ],
                "xyz": [
                    -0.657850860597252,
                    1.7748049190680841,
                    11.447517783440308
                ],
                "label": "Li",
                "properties": {}
            },
            {
                "species": [
                    {
                        "element": "Si",
                        "occu": 1
                    }
                ],
                "abc": [
                    0.27797039,
                    0.0,
                    0.333333
                ],
                "xyz": [
                    1.393781447841492,
                    0.0,
                    4.14290310375942
                ],
                "label": "Si",
                "properties": {}
            },
            {
                "species": [
                    {
                        "element": "Si",
                        "occu": 1
                    }
                ],
                "abc": [
                    0.72202961,
                    0.72202961,
                    0.0
                ],
                "xyz": [
                    1.810177467469106,
                    3.1353192699173418,
                    0.0
                ],
                "label": "Si",
                "properties": {}
            },
            {
                "species": [
                    {
                        "element": "Si",
                        "occu": 1
                    }
                ],
                "abc": [
                    0.0,
                    0.27797039,
                    0.666667
                ],
                "xyz": [
                    -0.696890725310598,
                    1.2070501100826583,
                    8.285818636240581
                ],
                "label": "Si",
                "properties": {}
            },
            {
                "species": [
                    {
                        "element": "O",
                        "occu": 1
                    }
                ],
                "abc": [
                    0.5482614,
                    0.51294848,
                    0.10715026
                ],
                "xyz": [
                    1.4630606145260099,
                    2.2274117730695426,
                    1.3317407659086524
                ],
                "label": "O",
                "properties": {}
            },
            {
                "species": [
                    {
                        "element": "O",
                        "occu": 1
                    }
                ],
                "abc": [
                    0.96468808,
                    0.4517386,
                    0.77381626
                ],
                "xyz": [
                    3.704538128154711,
                    1.961615864404068,
                    9.617546973427492
                ],
                "label": "O",
                "properties": {}
            },
            {
                "species": [
                    {
                        "element": "O",
                        "occu": 1
                    }
                ],
                "abc": [
                    0.48705152,
                    0.03531192,
                    0.44048326
                ],
                "xyz": [
                    2.3536133585238685,
                    0.15333740015700958,
                    5.474643869668072
                ],
                "label": "O",
                "properties": {}
            },
            {
                "species": [
                    {
                        "element": "O",
                        "occu": 1
                    }
                ],
                "abc": [
                    0.4517386,
                    0.96468808,
                    0.22618374
                ],
                "xyz": [
                    -0.15345985525940176,
                    4.18903197984299,
                    2.8111747665725075
                ],
                "label": "O",
                "properties": {}
            },
            {
                "species": [
                    {
                        "element": "O",
                        "occu": 1
                    }
                ],
                "abc": [
                    0.51294848,
                    0.5482614,
                    0.89284974
                ],
                "xyz": [
                    1.1974649185357074,
                    2.380753515595932,
                    11.096980974091347
                ],
                "label": "O",
                "properties": {}
            },
            {
                "species": [
                    {
                        "element": "O",
                        "occu": 1
                    }
                ],
                "abc": [
                    0.03531192,
                    0.48705152,
                    0.55951674
                ],
                "xyz": [
                    -1.0440125944808953,
                    2.114957606930458,
                    6.954077870331927
                ],
                "label": "O",
                "properties": {}
            },
            {
                "species": [
                    {
                        "element": "O",
                        "occu": 1
                    }
                ],
                "abc": [
                    0.06992093,
                    0.76127457,
                    0.99626148
                ],
                "xyz": [
                    -1.5579741863800312,
                    3.3057353825406666,
                    12.382256715200576
                ],
                "label": "O",
                "properties": {}
            },
            {
                "species": [
                    {
                        "element": "O",
                        "occu": 1
                    }
                ],
                "abc": [
                    0.69135364,
                    0.93007907,
                    0.66292848
                ],
                "xyz": [
                    1.1347697848003855,
                    4.038746874546876,
                    8.239353611441157
                ],
                "label": "O",
                "properties": {}
            },
            {
                "species": [
                    {
                        "element": "O",
                        "occu": 1
                    }
                ],
                "abc": [
                    0.23872543,
                    0.30864636,
                    0.32959448
                ],
                "xyz": [
                    0.4232043915796456,
                    1.340256502912457,
                    4.096438078959996
                ],
                "label": "O",
                "properties": {}
            },
            {
                "species": [
                    {
                        "element": "O",
                        "occu": 1
                    }
                ],
                "abc": [
                    0.93007907,
                    0.69135364,
                    0.33707152
                ],
                "xyz": [
                    2.930272584666109,
                    3.0021128770875434,
                    4.189368128558845
                ],
                "label": "O",
                "properties": {}
            },
            {
                "species": [
                    {
                        "element": "O",
                        "occu": 1
                    }
                ],
                "abc": [
                    0.76127457,
                    0.06992093,
                    0.00373852
                ],
                "xyz": [
                    3.6418379841011763,
                    0.3036225054531234,
                    0.0464650247994248
                ],
                "label": "O",
                "properties": {}
            },
            {
                "species": [
                    {
                        "element": "O",
                        "occu": 1
                    }
                ],
                "abc": [
                    0.30864636,
                    0.23872543,
                    0.67040552
                ],
                "xyz": [
                    0.9490940112327144,
                    1.0366339974593333,
                    8.332283661040005
                ],
                "label": "O",
                "properties": {}
            }
        ]
    },
    "spacegroup": {
        "source": "spglib",
        "symbol": "P3_121",
        "number": 152,
        "point_group": "32",
        "crystal_system": "trigonal",
        "hall": "P 31 2\""
    },
    "dielectric": {
        "epsilon_ionic": [
            [
                5.44466203,
                5.525e-05,
                -1e-08
            ],
            [
                5.525e-05,
                5.44459987,
                -1.125e-05
            ],
            [
                -1e-08,
                -1.125e-05,
                5.05345886
            ]
        ],
        "epsilon_ionic_avg": 5.314240253333335,
        "epsilon_ionic_eig": [
            5.444694341950473,
            5.4445675583731035,
            5.053458859676426
        ],
        "epsilon_electronic": [
            [
                3.00412597,
                0.0,
                0.0
            ],
            [
                0.0,
                3.00412575,
                0.0
            ],
            [
                0.0,
                0.0,
                3.02309849
            ]
        ],
        "epsilon_electronic_avg": 3.0104500700000005,
        "epsilon_electronic_eig": [
            3.00412597,
            3.00412575,
            3.02309849
        ]
    },
    "phonon": {
        "lowest_freq": -0.03690006453300334,
        "frequency": [
            -0.03690006453300334,
            -0.029391769590735726,
            -0.029391768551328523,
            2.7666027517976644,
            2.852286730135605,
            2.852286730135605,
            3.152378390270489,
            4.457963909501996,
            4.457963920466649,
            4.885436323049559,
            5.017583739467357,
            5.0253893792940545,
            5.025389427927127,
            5.491214718825503,
            5.491214807840463,
            6.012329827263915,
            6.012329847588826,
            6.052202807250063,
            6.819525016655833,
            6.942200365202444,
            7.242131530173117,
            7.242131547046611,
            7.956097252304605,
            7.956097283023201,
            9.00016883770527,
            9.000168851282801,
            10.281318073605652,
            10.281427599213123,
            10.796910108038306,
            10.796910164628603,
            11.035697979524535,
            11.035698079182989,
            11.375523951055964,
            11.441777918206856,
            11.765703411764536,
            11.765703422150658,
            11.98110130617979,
            11.981101499968421,
            12.185059343892828,
            12.656684455840772,
            12.656684542735613,
            12.813961918878839,
            12.8381797402023,
            13.593691386453626,
            13.593691395443095,
            14.006252871014045,
            14.051917475269134,
            14.051917553536073,
            14.755546672922641,
            15.301417573061096,
            15.3760093559831,
            15.37600949108975,
            15.767463039581358,
            15.767463117082768,
            15.925338508526094,
            16.1053065474374,
            16.10530662331305,
            16.469035459497064,
            17.35095791468212,
            17.35095805553897,
            23.806193737319532,
            23.942107515098233,
            23.942107515098233,
            25.162167840082745,
            25.380899597322937,
            25.38089983805527,
            26.08801288431161,
            26.2614389327394,
            26.35542020156602,
            26.355420479763207,
            28.227430046303745,
            28.22743013288624
        ]
    },
    "born_effective_charge": {
        "avg_abs_trace": 1.81413125,
        "tensors": [
            [
                [
                    2.27082,
                    -0.0,
                    -0.0
                ],
                [
                    -3e-05,
                    2.53747,
                    -0.18216
                ],
                [
                    4e-05,
                    -0.17586,
                    2.58117
                ]
            ],
            [
                [
                    2.47124,
                    -0.11525,
                    -0.15816
                ],
                [
                    -0.11516,
                    2.33823,
                    0.09075
                ],
                [
                    -0.15232,
                    0.0879,
                    2.58117
                ]
            ],
            [
                [
                    2.47124,
                    0.11525,
                    0.15816
                ],
                [
                    0.11537,
                    2.33782,
                    0.09145
                ],
                [
                    0.15228,
                    0.08796,
                    2.58117
                ]
            ],
            [
                [
                    1.01674,
                    -0.01253,
                    0.0548
                ],
                [
                    -0.08544,
                    0.98421,
                    -0.01805
                ],
                [
                    -0.01881,
                    -0.02513,
                    1.01251
                ]
            ],
            [
                [
                    1.03473,
                    0.07505,
                    -0.0431
                ],
                [
                    0.00219,
                    0.96616,
                    -0.03885
                ],
                [
                    -0.01236,
                    0.02886,
                    1.01251
                ]
            ],
            [
                [
                    0.94992,
                    0.04682,
                    -0.01172
                ],
                [
                    -0.026,
                    1.05101,
                    0.05684
                ],
                [
                    0.03117,
                    -0.00372,
                    1.01251
                ]
            ],
            [
                [
                    0.94992,
                    -0.04682,
                    0.01172
                ],
                [
                    0.02606,
                    1.05097,
                    0.05635
                ],
                [
                    -0.03118,
                    -0.00372,
                    1.01251
                ]
            ],
            [
                [
                    1.03473,
                    -0.07505,
                    0.0431
                ],
                [
                    -0.0022,
                    0.96613,
                    -0.03862
                ],
                [
                    0.01237,
                    0.02886,
                    1.01251
                ]
            ],
            [
                [
                    1.01674,
                    0.01253,
                    -0.0548
                ],
                [
                    0.08542,
                    0.98408,
                    -0.01774
                ],
                [
                    0.01881,
                    -0.02514,
                    1.01251
                ]
            ],
            [
                [
                    2.7389,
                    -0.0,
                    -0.0
                ],
                [
                    -7e-05,
                    2.93545,
                    0.0013
                ],
                [
                    0.0,
                    0.10639,
                    2.6782
                ]
            ],
            [
                [
                    2.88643,
                    -0.08516,
                    0.00198
                ],
                [
                    -0.08507,
                    2.78808,
                    4e-05
                ],
                [
                    0.09213,
                    -0.0532,
                    2.6782
                ]
            ],
            [
                [
                    2.88643,
                    0.08516,
                    -0.00198
                ],
                [
                    0.08515,
                    2.78811,
                    -0.00137
                ],
                [
                    -0.09214,
                    -0.05319,
                    2.6782
                ]
            ],
            [
                [
                    -1.84467,
                    -0.07385,
                    0.15779
                ],
                [
                    -0.03614,
                    -1.59439,
                    0.3418
                ],
                [
                    0.12244,
                    0.3637,
                    -1.95874
                ]
            ],
            [
                [
                    -1.6093,
                    -0.09951,
                    0.2177
                ],
                [
                    -0.06195,
                    -1.82977,
                    -0.30772
                ],
                [
                    0.25375,
                    -0.28789,
                    -1.95874
                ]
            ],
            [
                [
                    -1.70478,
                    0.11709,
                    -0.37544
                ],
                [
                    0.15471,
                    -1.73442,
                    -0.03404
                ],
                [
                    -0.37619,
                    -0.07581,
                    -1.95874
                ]
            ],
            [
                [
                    -1.70478,
                    -0.11709,
                    0.37544
                ],
                [
                    -0.15513,
                    -1.73419,
                    -0.03398
                ],
                [
                    0.37615,
                    -0.07579,
                    -1.95873
                ]
            ],
            [
                [
                    -1.6093,
                    0.09951,
                    -0.2177
                ],
                [
                    0.0618,
                    -1.82999,
                    -0.30861
                ],
                [
                    -0.25372,
                    -0.28786,
                    -1.95873
                ]
            ],
            [
                [
                    -1.84467,
                    0.07385,
                    -0.15779
                ],
                [
                    0.03645,
                    -1.59459,
                    0.34265
                ],
                [
                    -0.12244,
                    0.36365,
                    -1.95873
                ]
            ],
            [
                [
                    -2.29858,
                    -0.12903,
                    0.1395
                ],
                [
                    -0.09883,
                    -1.50461,
                    0.15497
                ],
                [
                    0.08602,
                    0.18101,
                    -1.68344
                ]
            ],
            [
                [
                    -1.60466,
                    -0.30187,
                    0.06518
                ],
                [
                    -0.2717,
                    -2.19893,
                    -0.19881
                ],
                [
                    0.11375,
                    -0.165,
                    -1.68344
                ]
            ],
            [
                [
                    -1.80194,
                    0.38551,
                    -0.20485
                ],
                [
                    0.4162,
                    -2.00156,
                    0.04366
                ],
                [
                    -0.19977,
                    -0.01601,
                    -1.68344
                ]
            ],
            [
                [
                    -1.80194,
                    -0.38551,
                    0.20485
                ],
                [
                    -0.41592,
                    -2.00136,
                    0.04372
                ],
                [
                    0.1998,
                    -0.01597,
                    -1.68347
                ]
            ],
            [
                [
                    -1.60466,
                    0.30187,
                    -0.06518
                ],
                [
                    0.27145,
                    -2.19905,
                    -0.19959
                ],
                [
                    -0.11373,
                    -0.16505,
                    -1.68347
                ]
            ],
            [
                [
                    -2.29858,
                    0.12903,
                    -0.1395
                ],
                [
                    0.09883,
                    -1.50486,
                    0.15601
                ],
                [
                    -0.08607,
                    0.18102,
                    -1.68347
                ]
            ]
        ]
    },
    "band_gap": 4.687899999999999,
    "is_direct": false,
    "formula": "SrLi2SiO4"
}