{
    "mp_id": "mp-1228131",
    "nelements": 4,
    "nsites": 19,
    "elements": [
        "Ba",
        "Nb",
        "O",
        "W"
    ],
    "structure": {
        "@module": "pymatgen.core.structure",
        "@class": "Structure",
        "charge": null,
        "lattice": {
            "matrix": [
                [
                    2.89598344,
                    1.67199659,
                    9.3954668
                ],
                [
                    -2.89598344,
                    1.67199659,
                    9.3954668
                ],
                [
                    0.0,
                    -3.34399318,
                    9.3954668
                ]
            ],
            "a": 9.972817509191076,
            "b": 9.972817509191076,
            "c": 9.972817394186496,
            "alpha": 33.7623323998685,
            "beta": 33.7623323998685,
            "gamma": 33.762335766027284,
            "volume": 272.961297660623
        },
        "sites": [
            {
                "species": [
                    {
                        "element": "Ba",
                        "occu": 1
                    }
                ],
                "abc": [
                    0.28962859,
                    0.28962859,
                    0.28962859
                ],
                "xyz": [
                    0.0,
                    0.0,
                    8.163587405027437
                ],
                "label": "Ba",
                "properties": {}
            },
            {
                "species": [
                    {
                        "element": "Ba",
                        "occu": 1
                    }
                ],
                "abc": [
                    0.7122693,
                    0.7122693,
                    0.7122693
                ],
                "xyz": [
                    0.0,
                    0.0,
                    20.076307682427718
                ],
                "label": "Ba",
                "properties": {}
            },
            {
                "species": [
                    {
                        "element": "Ba",
                        "occu": 1
                    }
                ],
                "abc": [
                    0.13484466,
                    0.13484466,
                    0.13484466
                ],
                "xyz": [
                    0.0,
                    0.0,
                    3.800785578561864
                ],
                "label": "Ba",
                "properties": {}
            },
            {
                "species": [
                    {
                        "element": "Ba",
                        "occu": 1
                    }
                ],
                "abc": [
                    0.86347904,
                    0.86347904,
                    0.86347904
                ],
                "xyz": [
                    0.0,
                    0.0,
                    24.33836595844761
                ],
                "label": "Ba",
                "properties": {}
            },
            {
                "species": [
                    {
                        "element": "Nb",
                        "occu": 1
                    }
                ],
                "abc": [
                    0.0001157,
                    0.0001157,
                    0.0001157
                ],
                "xyz": [
                    0.0,
                    0.0,
                    0.0032611665262799994
                ],
                "label": "Nb",
                "properties": {}
            },
            {
                "species": [
                    {
                        "element": "Nb",
                        "occu": 1
                    }
                ],
                "abc": [
                    0.42329424,
                    0.42329424,
                    0.42329424
                ],
                "xyz": [
                    0.0,
                    0.0,
                    11.931140935653694
                ],
                "label": "Nb",
                "properties": {}
            },
            {
                "species": [
                    {
                        "element": "W",
                        "occu": 1
                    }
                ],
                "abc": [
                    0.57898863,
                    0.57898863,
                    0.57898863
                ],
                "xyz": [
                    0.0,
                    0.0,
                    16.319605352227452
                ],
                "label": "W",
                "properties": {}
            },
            {
                "species": [
                    {
                        "element": "O",
                        "occu": 1
                    }
                ],
                "abc": [
                    0.7881838,
                    0.29822941,
                    0.7881838
                ],
                "xyz": [
                    1.418899799795302,
                    -0.8192020693355302,
                    17.612713970834267
                ],
                "label": "O",
                "properties": {}
            },
            {
                "species": [
                    {
                        "element": "O",
                        "occu": 1
                    }
                ],
                "abc": [
                    0.7881838,
                    0.7881838,
                    0.29822941
                ],
                "xyz": [
                    0.0,
                    1.6384041386710604,
                    17.612713970834267
                ],
                "label": "O",
                "properties": {}
            },
            {
                "species": [
                    {
                        "element": "O",
                        "occu": 1
                    }
                ],
                "abc": [
                    0.29822941,
                    0.7881838,
                    0.7881838
                ],
                "xyz": [
                    -1.418899799795302,
                    -0.8192020693355302,
                    17.612713970834267
                ],
                "label": "O",
                "properties": {}
            },
            {
                "species": [
                    {
                        "element": "O",
                        "occu": 1
                    }
                ],
                "abc": [
                    0.20416247,
                    0.70873325,
                    0.20416247
                ],
                "xyz": [
                    -1.4612286231878833,
                    0.8436406235736402,
                    10.495283137813091
                ],
                "label": "O",
                "properties": {}
            },
            {
                "species": [
                    {
                        "element": "O",
                        "occu": 1
                    }
                ],
                "abc": [
                    0.20416247,
                    0.20416247,
                    0.70873325
                ],
                "xyz": [
                    0.0,
                    -1.6872812471472804,
                    10.495283137813091
                ],
                "label": "O",
                "properties": {}
            },
            {
                "species": [
                    {
                        "element": "O",
                        "occu": 1
                    }
                ],
                "abc": [
                    0.70873325,
                    0.20416247,
                    0.20416247
                ],
                "xyz": [
                    1.4612286231878833,
                    0.8436406235736402,
                    10.495283137813091
                ],
                "label": "O",
                "properties": {}
            },
            {
                "species": [
                    {
                        "element": "O",
                        "occu": 1
                    }
                ],
                "abc": [
                    0.62103105,
                    0.1220057,
                    0.62103105
                ],
                "xyz": [
                    1.4451691497402042,
                    -0.8343686835235564,
                    12.816053727849042
                ],
                "label": "O",
                "properties": {}
            },
            {
                "species": [
                    {
                        "element": "O",
                        "occu": 1
                    }
                ],
                "abc": [
                    0.62103105,
                    0.62103105,
                    0.1220057
                ],
                "xyz": [
                    0.0,
                    1.668737367047113,
                    12.81605372784904
                ],
                "label": "O",
                "properties": {}
            },
            {
                "species": [
                    {
                        "element": "O",
                        "occu": 1
                    }
                ],
                "abc": [
                    0.1220057,
                    0.62103105,
                    0.62103105
                ],
                "xyz": [
                    -1.4451691497402042,
                    -0.8343686835235564,
                    12.816053727849042
                ],
                "label": "O",
                "properties": {}
            },
            {
                "species": [
                    {
                        "element": "O",
                        "occu": 1
                    }
                ],
                "abc": [
                    0.38860745,
                    0.86444393,
                    0.38860745
                ],
                "xyz": [
                    -1.3780145662278913,
                    0.7955969719576035,
                    15.424151034191842
                ],
                "label": "O",
                "properties": {}
            },
            {
                "species": [
                    {
                        "element": "O",
                        "occu": 1
                    }
                ],
                "abc": [
                    0.38860745,
                    0.38860745,
                    0.86444393
                ],
                "xyz": [
                    0.0,
                    -1.5911939439152065,
                    15.424151034191844
                ],
                "label": "O",
                "properties": {}
            },
            {
                "species": [
                    {
                        "element": "O",
                        "occu": 1
                    }
                ],
                "abc": [
                    0.86444393,
                    0.38860745,
                    0.38860745
                ],
                "xyz": [
                    1.3780145662278913,
                    0.7955969719576035,
                    15.424151034191842
                ],
                "label": "O",
                "properties": {}
            }
        ]
    },
    "spacegroup": {
        "source": "spglib",
        "symbol": "R3m",
        "number": 160,
        "point_group": "3m",
        "crystal_system": "trigonal",
        "hall": "R 3 -2\""
    },
    "dielectric": {
        "epsilon_ionic": [
            [
                43.5864382,
                -0.00016249,
                1.43e-06
            ],
            [
                -0.00016249,
                43.58672179,
                -0.00012814
            ],
            [
                1.43e-06,
                -0.00012814,
                16.09240555
            ]
        ],
        "epsilon_ionic_avg": 34.42185518,
        "epsilon_ionic_eig": [
            43.58636433605595,
            43.58679565454133,
            16.092405549402717
        ],
        "epsilon_electronic": [
            [
                5.24317411,
                0.0,
                0.0
            ],
            [
                0.0,
                5.24317475,
                1.7e-07
            ],
            [
                -0.0,
                1.7e-07,
                4.66117317
            ]
        ],
        "epsilon_electronic_avg": 5.04917401,
        "epsilon_electronic_eig": [
            4.66117316999995,
            5.243174750000049,
            5.24317411
        ]
    },
    "phonon": {
        "lowest_freq": -0.019037207391117264,
        "frequency": [
            -0.019037207391117264,
            -0.010975064629842702,
            -0.010975063961782477,
            1.7627630863876682,
            2.376103323543917,
            2.376103467544462,
            2.7477703854163353,
            2.7950586048592583,
            2.7950587753673974,
            3.168878972705143,
            3.3009513195353395,
            3.300951523143413,
            3.397676881540949,
            3.602851843932606,
            3.7339586066668664,
            3.7339587604822557,
            4.000021805278015,
            4.000022009962004,
            4.1064759118581495,
            4.326642717734528,
            4.3266429210886095,
            4.743266549724671,
            4.743266815082021,
            5.353553612569457,
            6.013080541940367,
            6.01308080613121,
            6.3941383400279355,
            7.335631773833625,
            7.335631990393136,
            7.938236935735606,
            8.103975553345533,
            8.103975613661639,
            8.120801419418054,
            8.996902971311568,
            8.996903229378285,
            9.269225778157281,
            9.269225844074366,
            9.384496821541246,
            11.065634438741794,
            11.065634438741794,
            11.87193513829584,
            12.149367426756909,
            12.149367487105764,
            12.215093227817015,
            12.645909079576283,
            15.528541839392009,
            15.528542264338762,
            16.337464356046407,
            16.33746487962854,
            17.528925528025734,
            19.88020704545536,
            19.88020784454202,
            20.512643329302367,
            20.512644163325003,
            22.779700359401286,
            24.386379872426716,
            24.581572258545414
        ]
    },
    "born_effective_charge": {
        "avg_abs_trace": 3.354010350877193,
        "tensors": [
            [
                [
                    3.03949,
                    -1e-05,
                    1e-05
                ],
                [
                    0.0,
                    3.0395,
                    3e-05
                ],
                [
                    0.0,
                    -0.0,
                    1.9742
                ]
            ],
            [
                [
                    2.91085,
                    -1e-05,
                    1e-05
                ],
                [
                    0.0,
                    2.91084,
                    2e-05
                ],
                [
                    0.0,
                    -0.0,
                    2.26597
                ]
            ],
            [
                [
                    2.98484,
                    0.0,
                    -0.0
                ],
                [
                    0.0,
                    2.98486,
                    0.0
                ],
                [
                    0.0,
                    -0.0,
                    3.37045
                ]
            ],
            [
                [
                    2.89734,
                    1e-05,
                    -0.0
                ],
                [
                    0.0,
                    2.8974,
                    -2e-05
                ],
                [
                    0.0,
                    -0.0,
                    3.62929
                ]
            ],
            [
                [
                    7.90268,
                    -9e-05,
                    0.0
                ],
                [
                    0.0,
                    7.90277,
                    -0.00022
                ],
                [
                    0.0,
                    0.0,
                    6.0856
                ]
            ],
            [
                [
                    6.42574,
                    -5e-05,
                    1e-05
                ],
                [
                    0.0,
                    6.42576,
                    -7e-05
                ],
                [
                    0.0,
                    0.0,
                    4.99242
                ]
            ],
            [
                [
                    7.51455,
                    2e-05,
                    1e-05
                ],
                [
                    0.0,
                    7.51461,
                    4e-05
                ],
                [
                    0.0,
                    0.0,
                    5.92011
                ]
            ],
            [
                [
                    -3.85212,
                    1.16497,
                    -1.65267
                ],
                [
                    1.16499,
                    -2.50687,
                    0.95422
                ],
                [
                    -1.31531,
                    0.75939,
                    -2.57287
                ]
            ],
            [
                [
                    -1.83435,
                    3e-05,
                    2e-05
                ],
                [
                    0.0,
                    -4.52467,
                    -1.90837
                ],
                [
                    0.0,
                    -1.51879,
                    -2.57287
                ]
            ],
            [
                [
                    -3.85212,
                    -1.16495,
                    1.65266
                ],
                [
                    -1.16499,
                    -2.50687,
                    0.95422
                ],
                [
                    1.31531,
                    0.75939,
                    -2.57287
                ]
            ],
            [
                [
                    -3.58481,
                    1.00366,
                    -1.43065
                ],
                [
                    1.00362,
                    -2.4259,
                    0.82602
                ],
                [
                    -1.15896,
                    0.66913,
                    -2.50374
                ]
            ],
            [
                [
                    -1.8465,
                    -0.0,
                    -1e-05
                ],
                [
                    0.0,
                    -4.16425,
                    -1.65198
                ],
                [
                    0.0,
                    -1.33825,
                    -2.50374
                ]
            ],
            [
                [
                    -3.58483,
                    -1.00361,
                    1.43065
                ],
                [
                    -1.00362,
                    -2.4259,
                    0.82602
                ],
                [
                    1.15896,
                    0.66913,
                    -2.50374
                ]
            ],
            [
                [
                    -2.97865,
                    0.7033,
                    -0.66208
                ],
                [
                    0.70329,
                    -2.16664,
                    0.38215
                ],
                [
                    -0.76032,
                    0.43897,
                    -2.22867
                ]
            ],
            [
                [
                    -1.76046,
                    -3e-05,
                    -2e-05
                ],
                [
                    0.0,
                    -3.38488,
                    -0.76425
                ],
                [
                    0.0,
                    -0.87794,
                    -2.22867
                ]
            ],
            [
                [
                    -2.97866,
                    -0.70328,
                    0.66208
                ],
                [
                    -0.70329,
                    -2.16664,
                    0.38215
                ],
                [
                    0.76032,
                    0.43897,
                    -2.22867
                ]
            ],
            [
                [
                    -2.89143,
                    0.73398,
                    -0.6912
                ],
                [
                    0.734,
                    -2.04393,
                    0.399
                ],
                [
                    -1.00059,
                    0.57769,
                    -2.10741
                ]
            ],
            [
                [
                    -1.62015,
                    1e-05,
                    0.0
                ],
                [
                    0.0,
                    -3.31526,
                    -0.79794
                ],
                [
                    0.0,
                    -1.15538,
                    -2.10741
                ]
            ],
            [
                [
                    -2.89143,
                    -0.73395,
                    0.69119
                ],
                [
                    -0.734,
                    -2.04393,
                    0.399
                ],
                [
                    1.00059,
                    0.57769,
                    -2.10741
                ]
            ]
        ]
    },
    "band_gap": 2.7661,
    "is_direct": true,
    "formula": "Ba4Nb2WO12"
}