{
    "mp_id": "mp-1190454",
    "nelements": 4,
    "nsites": 22,
    "elements": [
        "As",
        "Ba",
        "Hg",
        "O"
    ],
    "structure": {
        "@module": "pymatgen.core.structure",
        "@class": "Structure",
        "charge": null,
        "lattice": {
            "matrix": [
                [
                    5.84971207,
                    -0.00439104,
                    0.00016284
                ],
                [
                    -0.99899061,
                    7.42099285,
                    0.0011126
                ],
                [
                    -0.12036166,
                    -1.54900213,
                    7.65647196
                ]
            ],
            "a": 5.849713720315964,
            "b": 7.48793151387605,
            "c": 7.812519273717585,
            "alpha": 101.20373549397651,
            "beta": 90.87265635528564,
            "gamma": 97.7098944736699,
            "volume": 332.3494822837524
        },
        "sites": [
            {
                "species": [
                    {
                        "element": "Ba",
                        "occu": 1
                    }
                ],
                "abc": [
                    0.6962039,
                    0.27326051,
                    0.93330583
                ],
                "xyz": [
                    3.6872734344507836,
                    0.5791145131128796,
                    7.146247316986029
                ],
                "label": "Ba",
                "properties": {}
            },
            {
                "species": [
                    {
                        "element": "Ba",
                        "occu": 1
                    }
                ],
                "abc": [
                    0.3037961,
                    0.72673949,
                    0.06669417
                ],
                "xyz": [
                    1.0430863655492157,
                    5.288485166887121,
                    0.5115000830139712
                ],
                "label": "Ba",
                "properties": {}
            },
            {
                "species": [
                    {
                        "element": "Hg",
                        "occu": 1
                    }
                ],
                "abc": [
                    0.31033936,
                    0.82853329,
                    0.59791636
                ],
                "xyz": [
                    0.9157327175749108,
                    5.221003193331796,
                    4.578902206565102
                ],
                "label": "Hg",
                "properties": {}
            },
            {
                "species": [
                    {
                        "element": "Hg",
                        "occu": 1
                    }
                ],
                "abc": [
                    0.68966064,
                    0.17146671,
                    0.40208364
                ],
                "xyz": [
                    3.8146270824250896,
                    0.6465964866682046,
                    3.078845193434898
                ],
                "label": "Hg",
                "properties": {}
            },
            {
                "species": [
                    {
                        "element": "As",
                        "occu": 1
                    }
                ],
                "abc": [
                    0.81443602,
                    0.77310151,
                    0.81263081
                ],
                "xyz": [
                    3.8940854741111957,
                    4.474837701299318,
                    6.222877786098611
                ],
                "label": "As",
                "properties": {}
            },
            {
                "species": [
                    {
                        "element": "As",
                        "occu": 1
                    }
                ],
                "abc": [
                    0.18556398,
                    0.22689849,
                    0.18736919
                ],
                "xyz": [
                    0.836274325888804,
                    1.3927619787006826,
                    1.4348696139013897
                ],
                "label": "As",
                "properties": {}
            },
            {
                "species": [
                    {
                        "element": "As",
                        "occu": 1
                    }
                ],
                "abc": [
                    0.78777289,
                    0.66783179,
                    0.39225156
                ],
                "xyz": [
                    3.8938748468831004,
                    4.344917294385973,
                    3.0041343809932193
                ],
                "label": "As",
                "properties": {}
            },
            {
                "species": [
                    {
                        "element": "As",
                        "occu": 1
                    }
                ],
                "abc": [
                    0.21222711,
                    0.33216821,
                    0.60774844
                ],
                "xyz": [
                    0.8364849531168991,
                    1.522682385614027,
                    4.65361301900678
                ],
                "label": "As",
                "properties": {}
            },
            {
                "species": [
                    {
                        "element": "O",
                        "occu": 1
                    }
                ],
                "abc": [
                    0.94118214,
                    0.22781275,
                    0.63476543
                ],
                "xyz": [
                    5.201660305472739,
                    0.7032110173444461,
                    4.860470442537671
                ],
                "label": "O",
                "properties": {}
            },
            {
                "species": [
                    {
                        "element": "O",
                        "occu": 1
                    }
                ],
                "abc": [
                    0.05881786,
                    0.77218725,
                    0.36523457
                ],
                "xyz": [
                    -0.4713005054727385,
                    5.164388662655553,
                    2.7972769574623295
                ],
                "label": "O",
                "properties": {}
            },
            {
                "species": [
                    {
                        "element": "O",
                        "occu": 1
                    }
                ],
                "abc": [
                    0.78403366,
                    0.64055622,
                    0.96470048
                ],
                "xyz": [
                    3.830348564055585,
                    3.2557973071485993,
                    7.387042529810107
                ],
                "label": "O",
                "properties": {}
            },
            {
                "species": [
                    {
                        "element": "O",
                        "occu": 1
                    }
                ],
                "abc": [
                    0.21596634,
                    0.35944378,
                    0.03529952
                ],
                "xyz": [
                    0.9000112359444148,
                    2.6118023728514017,
                    0.2707048701898928
                ],
                "label": "O",
                "properties": {}
            },
            {
                "species": [
                    {
                        "element": "O",
                        "occu": 1
                    }
                ],
                "abc": [
                    0.78553015,
                    0.61596423,
                    0.60673203
                ],
                "xyz": [
                    3.906755443632061,
                    3.6277876455666758,
                    4.646240012460803
                ],
                "label": "O",
                "properties": {}
            },
            {
                "species": [
                    {
                        "element": "O",
                        "occu": 1
                    }
                ],
                "abc": [
                    0.21446985,
                    0.38403577,
                    0.39326797
                ],
                "xyz": [
                    0.8236043563679394,
                    2.2398120344333243,
                    3.011507387539197
                ],
                "label": "O",
                "properties": {}
            },
            {
                "species": [
                    {
                        "element": "O",
                        "occu": 1
                    }
                ],
                "abc": [
                    0.59565097,
                    0.90409458,
                    0.81994476
                ],
                "xyz": [
                    2.4825147603224127,
                    5.4365677069461045,
                    6.278986955122592
                ],
                "label": "O",
                "properties": {}
            },
            {
                "species": [
                    {
                        "element": "O",
                        "occu": 1
                    }
                ],
                "abc": [
                    0.40434903,
                    0.09590542,
                    0.18005524
                ],
                "xyz": [
                    2.2478450396775873,
                    0.43103197305389457,
                    1.3787604448774078
                ],
                "label": "O",
                "properties": {}
            },
            {
                "species": [
                    {
                        "element": "O",
                        "occu": 1
                    }
                ],
                "abc": [
                    0.58651638,
                    0.81328311,
                    0.38103298
                ],
                "xyz": [
                    2.572627995189562,
                    5.442571829830282,
                    2.918368694320746
                ],
                "label": "O",
                "properties": {}
            },
            {
                "species": [
                    {
                        "element": "O",
                        "occu": 1
                    }
                ],
                "abc": [
                    0.41348362,
                    0.18671689,
                    0.61896702
                ],
                "xyz": [
                    2.1577318048104375,
                    0.4250278501697191,
                    4.739378705679255
                ],
                "label": "O",
                "properties": {}
            },
            {
                "species": [
                    {
                        "element": "O",
                        "occu": 1
                    }
                ],
                "abc": [
                    0.28600199,
                    0.54286362,
                    0.73170887
                ],
                "xyz": [
                    1.0426439398264868,
                    2.893912598197054,
                    5.602959008665949
                ],
                "label": "O",
                "properties": {}
            },
            {
                "species": [
                    {
                        "element": "O",
                        "occu": 1
                    }
                ],
                "abc": [
                    0.71399801,
                    0.45713638,
                    0.26829113
                ],
                "xyz": [
                    3.687715860173513,
                    2.9736870818029457,
                    2.0547883913340512
                ],
                "label": "O",
                "properties": {}
            },
            {
                "species": [
                    {
                        "element": "O",
                        "occu": 1
                    }
                ],
                "abc": [
                    0.08145164,
                    0.89931321,
                    0.83088405
                ],
                "xyz": [
                    -0.5219433941351863,
                    5.386398080678216,
                    6.362654270298742
                ],
                "label": "O",
                "properties": {}
            },
            {
                "species": [
                    {
                        "element": "O",
                        "occu": 1
                    }
                ],
                "abc": [
                    0.91854836,
                    0.10068679,
                    0.16911595
                ],
                "xyz": [
                    5.252303194135186,
                    0.4812015993217836,
                    1.2950931297012584
                ],
                "label": "O",
                "properties": {}
            }
        ]
    },
    "spacegroup": {
        "source": "spglib",
        "symbol": "P-1",
        "number": 2,
        "point_group": "-1",
        "crystal_system": "triclinic",
        "hall": "-P 1"
    },
    "dielectric": {
        "epsilon_ionic": [
            [
                9.87742936,
                -0.66745144,
                -0.02388891
            ],
            [
                -0.66745144,
                9.27763722,
                -0.28834702
            ],
            [
                -0.02388891,
                -0.28834702,
                4.81529375
            ]
        ],
        "epsilon_ionic_avg": 7.990120110000003,
        "epsilon_ionic_eig": [
            10.312684149115084,
            8.861830413790885,
            4.795845767094039
        ],
        "epsilon_electronic": [
            [
                4.08950157,
                0.00143381,
                -0.00031291
            ],
            [
                0.00143079,
                3.69069993,
                0.01102835
            ],
            [
                -0.0003146,
                0.01102909,
                3.85665775
            ]
        ],
        "epsilon_electronic_avg": 3.8789530833333337,
        "epsilon_electronic_eig": [
            4.089507037229549,
            3.6899649637923457,
            3.8573872489781076
        ]
    },
    "phonon": {
        "lowest_freq": -0.04700522431329337,
        "frequency": [
            -0.04700522431329337,
            -0.023723723641430505,
            -0.01752178619081141,
            1.1230703246928704,
            1.3105098803375885,
            1.4685907290279439,
            1.8500121897522956,
            1.8707709444735143,
            1.9777797930766612,
            2.4808557874301918,
            2.5306737551489675,
            2.672799861628909,
            2.769704929137732,
            2.9678849436153136,
            3.002622312203976,
            3.280371144432946,
            3.536510569134133,
            3.6106715318318594,
            3.8038214403780923,
            3.8239643128069427,
            4.059483226929199,
            4.094657750341586,
            4.31488840482629,
            4.438099961650047,
            4.679228433956457,
            4.77591604536596,
            5.88785117577256,
            6.051777670678129,
            6.476203540329613,
            6.784489764108874,
            6.886732896529526,
            7.273475147340718,
            7.577495071411435,
            7.771922152521761,
            8.370668206748064,
            8.386306294810337,
            9.06196853074665,
            9.209198234959919,
            9.674425888977341,
            9.740371774044089,
            10.219357373651052,
            10.231537540015387,
            10.421436104613218,
            10.477874867014519,
            10.735336076309501,
            11.198120298192801,
            11.672018604083235,
            11.880551445229983,
            12.80793581287204,
            13.140273568775886,
            15.326249767498918,
            15.667291401493019,
            21.640835736368842,
            21.666255283100163,
            22.133113965463416,
            22.15226200269809,
            23.12891344186018,
            23.37678401123167,
            23.777277321991576,
            23.900483993126258,
            24.193931396506777,
            24.274633076325483,
            25.218907675188458,
            25.384571847908614,
            25.55580430117846,
            25.764042359823872
        ]
    },
    "born_effective_charge": {
        "avg_abs_trace": 2.2539253030303033,
        "tensors": [
            [
                [
                    2.49859,
                    -0.04134,
                    -0.01858
                ],
                [
                    0.04039,
                    2.81624,
                    0.18366
                ],
                [
                    -0.04221,
                    -0.04592,
                    3.29492
                ]
            ],
            [
                [
                    2.49861,
                    -0.0413,
                    -0.01868
                ],
                [
                    0.04044,
                    2.81629,
                    0.18353
                ],
                [
                    -0.04202,
                    -0.046,
                    3.29483
                ]
            ],
            [
                [
                    3.0658,
                    0.08391,
                    0.03461
                ],
                [
                    0.13565,
                    2.39926,
                    -0.19937
                ],
                [
                    -0.00637,
                    -0.02637,
                    2.26277
                ]
            ],
            [
                [
                    3.06583,
                    0.0839,
                    0.03466
                ],
                [
                    0.13564,
                    2.39908,
                    -0.1992
                ],
                [
                    -0.00647,
                    -0.02648,
                    2.26272
                ]
            ],
            [
                [
                    4.04964,
                    -0.02088,
                    0.05474
                ],
                [
                    -0.15434,
                    2.80729,
                    -0.18969
                ],
                [
                    -0.02115,
                    -0.05226,
                    3.46241
                ]
            ],
            [
                [
                    4.04952,
                    -0.02092,
                    0.05474
                ],
                [
                    -0.15428,
                    2.80729,
                    -0.18973
                ],
                [
                    -0.02119,
                    -0.05271,
                    3.46246
                ]
            ],
            [
                [
                    3.98819,
                    -0.17955,
                    -0.09372
                ],
                [
                    -0.32486,
                    3.33241,
                    0.41437
                ],
                [
                    0.18035,
                    0.12442,
                    3.21229
                ]
            ],
            [
                [
                    3.98826,
                    -0.17957,
                    -0.09371
                ],
                [
                    -0.32486,
                    3.33258,
                    0.41432
                ],
                [
                    0.1803,
                    0.12471,
                    3.21225
                ]
            ],
            [
                [
                    -2.56322,
                    -0.55725,
                    -0.03507
                ],
                [
                    -0.40815,
                    -1.17407,
                    0.01559
                ],
                [
                    -0.04848,
                    -0.03172,
                    -1.51014
                ]
            ],
            [
                [
                    -2.56318,
                    -0.55724,
                    -0.03501
                ],
                [
                    -0.40831,
                    -1.17383,
                    0.01556
                ],
                [
                    -0.04686,
                    -0.02988,
                    -1.51118
                ]
            ],
            [
                [
                    -1.58017,
                    -0.04326,
                    0.01661
                ],
                [
                    -0.04478,
                    -1.8901,
                    0.42885
                ],
                [
                    0.04344,
                    0.70257,
                    -1.69226
                ]
            ],
            [
                [
                    -1.58009,
                    -0.0431,
                    0.01647
                ],
                [
                    -0.04468,
                    -1.88959,
                    0.4285
                ],
                [
                    0.0435,
                    0.70375,
                    -1.69295
                ]
            ],
            [
                [
                    -1.1568,
                    0.03342,
                    0.01952
                ],
                [
                    0.05657,
                    -1.09523,
                    -0.03873
                ],
                [
                    -0.01937,
                    -0.11223,
                    -2.91161
                ]
            ],
            [
                [
                    -1.15682,
                    0.03337,
                    0.01951
                ],
                [
                    0.05674,
                    -1.09551,
                    -0.03881
                ],
                [
                    -0.01908,
                    -0.11171,
                    -2.91195
                ]
            ],
            [
                [
                    -2.35589,
                    0.44105,
                    -0.18752
                ],
                [
                    0.30885,
                    -1.73883,
                    -0.08843
                ],
                [
                    -0.1753,
                    -0.06769,
                    -1.41073
                ]
            ],
            [
                [
                    -2.35565,
                    0.44094,
                    -0.18746
                ],
                [
                    0.30892,
                    -1.73874,
                    -0.08819
                ],
                [
                    -0.17757,
                    -0.0658,
                    -1.41047
                ]
            ],
            [
                [
                    -2.36727,
                    0.65661,
                    0.14436
                ],
                [
                    0.55058,
                    -1.9095,
                    0.02414
                ],
                [
                    0.01862,
                    0.02712,
                    -1.37399
                ]
            ],
            [
                [
                    -2.36739,
                    0.65669,
                    0.14442
                ],
                [
                    0.55084,
                    -1.90986,
                    0.0242
                ],
                [
                    0.02012,
                    0.02544,
                    -1.3735
                ]
            ],
            [
                [
                    -1.19155,
                    -0.01786,
                    -0.05744
                ],
                [
                    -0.01973,
                    -2.30731,
                    -0.52817
                ],
                [
                    -0.09587,
                    -0.61232,
                    -1.78598
                ]
            ],
            [
                [
                    -1.19156,
                    -0.01776,
                    -0.05735
                ],
                [
                    -0.01973,
                    -2.30696,
                    -0.52768
                ],
                [
                    -0.09589,
                    -0.61141,
                    -1.78547
                ]
            ],
            [
                [
                    -2.3875,
                    -0.35497,
                    0.12243
                ],
                [
                    -0.14061,
                    -1.24061,
                    -0.02261
                ],
                [
                    0.16505,
                    0.09161,
                    -1.54755
                ]
            ],
            [
                [
                    -2.38736,
                    -0.35489,
                    0.12247
                ],
                [
                    -0.14031,
                    -1.24028,
                    -0.02212
                ],
                [
                    0.16645,
                    0.09287,
                    -1.54689
                ]
            ]
        ]
    },
    "band_gap": 1.4660000000000002,
    "is_direct": false,
    "formula": "BaHgAs2O7"
}