{
    "mp_id": "mp-1190024",
    "nelements": 4,
    "nsites": 22,
    "elements": [
        "Ba",
        "Na",
        "O",
        "Sb"
    ],
    "structure": {
        "@module": "pymatgen.core.structure",
        "@class": "Structure",
        "charge": null,
        "lattice": {
            "matrix": [
                [
                    5.12667059,
                    2.95988484,
                    3.98129584
                ],
                [
                    -5.12667059,
                    2.95988484,
                    3.98129584
                ],
                [
                    0.0,
                    -5.91976967,
                    3.98129584
                ]
            ],
            "a": 7.134030149223795,
            "b": 7.134030149223795,
            "c": 7.134030383412536,
            "alpha": 91.88164819054876,
            "beta": 91.88164819054876,
            "gamma": 91.88164438859513,
            "volume": 362.4815676747294
        },
        "sites": [
            {
                "species": [
                    {
                        "element": "Ba",
                        "occu": 1
                    }
                ],
                "abc": [
                    0.60106654,
                    0.25,
                    0.89893346
                ],
                "xyz": [
                    1.799802505751059,
                    -2.8024200822789043,
                    6.96726772
                ],
                "label": "Ba",
                "properties": {}
            },
            {
                "species": [
                    {
                        "element": "Ba",
                        "occu": 1
                    }
                ],
                "abc": [
                    0.25,
                    0.89893346,
                    0.60106654
                ],
                "xyz": [
                    -3.3268680842489413,
                    -0.15746474272109579,
                    6.967267720000001
                ],
                "label": "Ba",
                "properties": {}
            },
            {
                "species": [
                    {
                        "element": "Ba",
                        "occu": 1
                    }
                ],
                "abc": [
                    0.89893346,
                    0.60106654,
                    0.25
                ],
                "xyz": [
                    1.5270655784978824,
                    2.9598848424999993,
                    6.967267720000001
                ],
                "label": "Ba",
                "properties": {}
            },
            {
                "species": [
                    {
                        "element": "Ba",
                        "occu": 1
                    }
                ],
                "abc": [
                    0.10106654,
                    0.39893346,
                    0.75
                ],
                "xyz": [
                    -1.5270655784978828,
                    -2.9598848325,
                    4.9766198
                ],
                "label": "Ba",
                "properties": {}
            },
            {
                "species": [
                    {
                        "element": "Ba",
                        "occu": 1
                    }
                ],
                "abc": [
                    0.39893346,
                    0.75,
                    0.10106654
                ],
                "xyz": [
                    -1.7998025057510585,
                    2.8024200922789047,
                    4.9766198
                ],
                "label": "Ba",
                "properties": {}
            },
            {
                "species": [
                    {
                        "element": "Ba",
                        "occu": 1
                    }
                ],
                "abc": [
                    0.75,
                    0.10106654,
                    0.39893346
                ],
                "xyz": [
                    3.3268680842489413,
                    0.15746475272109528,
                    4.9766198
                ],
                "label": "Ba",
                "properties": {}
            },
            {
                "species": [
                    {
                        "element": "Na",
                        "occu": 1
                    }
                ],
                "abc": [
                    0.25,
                    0.25,
                    0.25
                ],
                "xyz": [
                    0.0,
                    2.4999999848063226e-09,
                    2.98597188
                ],
                "label": "Na",
                "properties": {}
            },
            {
                "species": [
                    {
                        "element": "Na",
                        "occu": 1
                    }
                ],
                "abc": [
                    0.75,
                    0.75,
                    0.75
                ],
                "xyz": [
                    0.0,
                    7.499999732374363e-09,
                    8.95791564
                ],
                "label": "Na",
                "properties": {}
            },
            {
                "species": [
                    {
                        "element": "Sb",
                        "occu": 1
                    }
                ],
                "abc": [
                    0.0,
                    0.0,
                    0.0
                ],
                "xyz": [
                    0.0,
                    0.0,
                    0.0
                ],
                "label": "Sb",
                "properties": {}
            },
            {
                "species": [
                    {
                        "element": "Sb",
                        "occu": 1
                    }
                ],
                "abc": [
                    0.5,
                    0.5,
                    0.5
                ],
                "xyz": [
                    0.0,
                    4.999999969612645e-09,
                    5.97194376
                ],
                "label": "Sb",
                "properties": {}
            },
            {
                "species": [
                    {
                        "element": "O",
                        "occu": 1
                    }
                ],
                "abc": [
                    0.08257838,
                    0.94864183,
                    0.26822028
                ],
                "xyz": [
                    -4.440022018188936,
                    1.4644907878577087,
                    5.173457017164562
                ],
                "label": "O",
                "properties": {}
            },
            {
                "species": [
                    {
                        "element": "O",
                        "occu": 1
                    }
                ],
                "abc": [
                    0.94864183,
                    0.26822028,
                    0.08257838
                ],
                "xyz": [
                    3.4882971491872143,
                    3.112926722437678,
                    5.173457017164561
                ],
                "label": "O",
                "properties": {}
            },
            {
                "species": [
                    {
                        "element": "O",
                        "occu": 1
                    }
                ],
                "abc": [
                    0.26822028,
                    0.08257838,
                    0.94864183
                ],
                "xyz": [
                    0.9517248690017209,
                    -4.577417497300982,
                    5.173457017164561
                ],
                "label": "O",
                "properties": {}
            },
            {
                "species": [
                    {
                        "element": "O",
                        "occu": 1
                    }
                ],
                "abc": [
                    0.58257838,
                    0.76822028,
                    0.44864183
                ],
                "xyz": [
                    -0.9517248690017213,
                    1.3423521776990182,
                    7.164104937164561
                ],
                "label": "O",
                "properties": {}
            },
            {
                "species": [
                    {
                        "element": "O",
                        "occu": 1
                    }
                ],
                "abc": [
                    0.76822028,
                    0.44864183,
                    0.58257838
                ],
                "xyz": [
                    1.6383734408127855,
                    0.15304188743767844,
                    7.164104937164561
                ],
                "label": "O",
                "properties": {}
            },
            {
                "species": [
                    {
                        "element": "O",
                        "occu": 1
                    }
                ],
                "abc": [
                    0.44864183,
                    0.58257838,
                    0.76822028
                ],
                "xyz": [
                    -0.6866485718110642,
                    -1.495394047142291,
                    7.164104937164562
                ],
                "label": "O",
                "properties": {}
            },
            {
                "species": [
                    {
                        "element": "O",
                        "occu": 1
                    }
                ],
                "abc": [
                    0.91742162,
                    0.05135817,
                    0.73177972
                ],
                "xyz": [
                    4.440022018188936,
                    -1.4644907778577085,
                    6.770430502835438
                ],
                "label": "O",
                "properties": {}
            },
            {
                "species": [
                    {
                        "element": "O",
                        "occu": 1
                    }
                ],
                "abc": [
                    0.05135817,
                    0.73177972,
                    0.91742162
                ],
                "xyz": [
                    -3.4882971491872143,
                    -3.1129267124376785,
                    6.770430502835438
                ],
                "label": "O",
                "properties": {}
            },
            {
                "species": [
                    {
                        "element": "O",
                        "occu": 1
                    }
                ],
                "abc": [
                    0.73177972,
                    0.91742162,
                    0.05135817
                ],
                "xyz": [
                    -0.9517248690017213,
                    4.577417507300981,
                    6.770430502835438
                ],
                "label": "O",
                "properties": {}
            },
            {
                "species": [
                    {
                        "element": "O",
                        "occu": 1
                    }
                ],
                "abc": [
                    0.41742162,
                    0.23177972,
                    0.55135817
                ],
                "xyz": [
                    0.9517248690017208,
                    -1.3423521676990182,
                    4.7797825828354386
                ],
                "label": "O",
                "properties": {}
            },
            {
                "species": [
                    {
                        "element": "O",
                        "occu": 1
                    }
                ],
                "abc": [
                    0.23177972,
                    0.55135817,
                    0.41742162
                ],
                "xyz": [
                    -1.6383734408127855,
                    -0.15304187743767805,
                    4.7797825828354386
                ],
                "label": "O",
                "properties": {}
            },
            {
                "species": [
                    {
                        "element": "O",
                        "occu": 1
                    }
                ],
                "abc": [
                    0.55135817,
                    0.41742162,
                    0.23177972
                ],
                "xyz": [
                    0.6866485718110646,
                    1.4953940571422912,
                    4.779782582835438
                ],
                "label": "O",
                "properties": {}
            }
        ]
    },
    "spacegroup": {
        "source": "spglib",
        "symbol": "R-3c",
        "number": 167,
        "point_group": "-3m",
        "crystal_system": "trigonal",
        "hall": "-R 3 2\"c"
    },
    "dielectric": {
        "epsilon_ionic": [
            [
                10.72244557,
                -0.0,
                -0.0
            ],
            [
                -0.0,
                10.72243782,
                2.9e-07
            ],
            [
                -0.0,
                2.9e-07,
                7.94999735
            ]
        ],
        "epsilon_ionic_avg": 9.79829358,
        "epsilon_ionic_eig": [
            7.94999734999997,
            10.72243782000003,
            10.72244557
        ],
        "epsilon_electronic": [
            [
                4.05254831,
                0.0,
                -0.0
            ],
            [
                0.0,
                4.05254772,
                3.2e-07
            ],
            [
                -0.0,
                3.2e-07,
                3.83164636
            ]
        ],
        "epsilon_electronic_avg": 3.9789141299999997,
        "epsilon_electronic_eig": [
            3.8316463599995365,
            4.052547720000463,
            4.05254831
        ]
    },
    "phonon": {
        "lowest_freq": -0.07545856356780584,
        "frequency": [
            -0.07545856356780584,
            -0.07545855806173445,
            -0.06788509284948753,
            2.460095137954252,
            2.460095267103795,
            2.5956000076311705,
            2.6259364681184096,
            2.730883848936448,
            2.880677760436325,
            2.8806778876981083,
            3.3039085535597463,
            3.406534351238258,
            3.4065345413611996,
            3.4396755174717204,
            3.4396756347095843,
            3.7236409295104265,
            3.723641155950205,
            3.881991305393716,
            4.1891246325306986,
            4.599692969746379,
            4.670082257091879,
            4.670082288491771,
            4.850536461577958,
            4.919756105650693,
            4.919756205005265,
            5.412628479238397,
            5.412628682429984,
            5.430718986446096,
            5.430719346472271,
            5.561858690269767,
            5.805937404498668,
            5.805937404498668,
            6.097222174810946,
            6.097222275020567,
            6.813429155286364,
            7.637084041935711,
            7.7706996346687385,
            7.919496811797722,
            8.273828927426218,
            8.27382914896826,
            8.763290685200442,
            8.763290908313095,
            9.685608109526678,
            9.685608652043225,
            10.512730955249003,
            10.512731408585294,
            10.704839589891684,
            10.818929009703313,
            11.136120941988166,
            11.136121227294124,
            11.176569401954401,
            11.176569817430941,
            11.805077281096787,
            11.90822487064962,
            14.110720375412873,
            14.11072095563869,
            15.06927668285311,
            15.069277372136714,
            15.16469369498987,
            15.164694420227443,
            15.393704161729849,
            15.851573873867538,
            15.851574336408603,
            16.12252256073117,
            17.992526334409455,
            18.015017431518192
        ]
    },
    "born_effective_charge": {
        "avg_abs_trace": 2.462867272727273,
        "tensors": [
            [
                [
                    2.75419,
                    -0.05387,
                    0.34051
                ],
                [
                    -0.05385,
                    2.69191,
                    -0.19662
                ],
                [
                    0.39265,
                    -0.22674,
                    2.56257
                ]
            ],
            [
                [
                    2.75419,
                    0.05387,
                    -0.34051
                ],
                [
                    0.05405,
                    2.6919,
                    -0.19653
                ],
                [
                    -0.39269,
                    -0.22667,
                    2.56257
                ]
            ],
            [
                [
                    2.66069,
                    -0.0,
                    -0.0
                ],
                [
                    -4e-05,
                    2.78536,
                    0.39315
                ],
                [
                    4e-05,
                    0.45341,
                    2.56257
                ]
            ],
            [
                [
                    2.66083,
                    -0.0,
                    -0.0
                ],
                [
                    4e-05,
                    2.78536,
                    0.39315
                ],
                [
                    -4e-05,
                    0.45341,
                    2.56257
                ]
            ],
            [
                [
                    2.75422,
                    -0.05403,
                    0.34044
                ],
                [
                    -0.05405,
                    2.6919,
                    -0.19653
                ],
                [
                    0.39269,
                    -0.22667,
                    2.56257
                ]
            ],
            [
                [
                    2.75422,
                    0.05403,
                    -0.34044
                ],
                [
                    0.05385,
                    2.69191,
                    -0.19662
                ],
                [
                    -0.39265,
                    -0.22674,
                    2.56257
                ]
            ],
            [
                [
                    0.91413,
                    0.0,
                    -0.0
                ],
                [
                    2e-05,
                    0.91414,
                    -0.0
                ],
                [
                    0.0,
                    0.0,
                    1.25039
                ]
            ],
            [
                [
                    0.91415,
                    0.0,
                    -0.0
                ],
                [
                    -2e-05,
                    0.91414,
                    -0.0
                ],
                [
                    0.0,
                    0.0,
                    1.25039
                ]
            ],
            [
                [
                    4.77751,
                    0.00963,
                    -0.0
                ],
                [
                    -0.00963,
                    4.7775,
                    0.0
                ],
                [
                    0.0,
                    0.0,
                    3.97758
                ]
            ],
            [
                [
                    4.77751,
                    -0.00963,
                    0.0
                ],
                [
                    0.00963,
                    4.7775,
                    0.0
                ],
                [
                    0.0,
                    0.0,
                    3.97758
                ]
            ],
            [
                [
                    -2.18344,
                    0.1749,
                    -0.23823
                ],
                [
                    0.17201,
                    -2.43686,
                    0.49287
                ],
                [
                    -0.22885,
                    0.47076,
                    -2.15262
                ]
            ],
            [
                [
                    -2.52368,
                    0.02435,
                    0.54594
                ],
                [
                    0.02159,
                    -2.09661,
                    -0.04009
                ],
                [
                    0.52211,
                    -0.03719,
                    -2.15262
                ]
            ],
            [
                [
                    -2.22323,
                    -0.195,
                    -0.30767
                ],
                [
                    -0.19792,
                    -2.397,
                    -0.45276
                ],
                [
                    -0.29326,
                    -0.43357,
                    -2.15262
                ]
            ],
            [
                [
                    -2.22327,
                    0.19499,
                    0.30769
                ],
                [
                    0.19792,
                    -2.397,
                    -0.45276
                ],
                [
                    0.29326,
                    -0.43357,
                    -2.15262
                ]
            ],
            [
                [
                    -2.52367,
                    -0.02442,
                    -0.54592
                ],
                [
                    -0.02159,
                    -2.09661,
                    -0.04009
                ],
                [
                    -0.52211,
                    -0.03719,
                    -2.15262
                ]
            ],
            [
                [
                    -2.18352,
                    -0.17483,
                    0.23827
                ],
                [
                    -0.17201,
                    -2.43686,
                    0.49287
                ],
                [
                    0.22885,
                    0.47076,
                    -2.15262
                ]
            ],
            [
                [
                    -2.18352,
                    0.17483,
                    -0.23827
                ],
                [
                    0.17204,
                    -2.43672,
                    0.49279
                ],
                [
                    -0.22882,
                    0.47077,
                    -2.15261
                ]
            ],
            [
                [
                    -2.52367,
                    0.02442,
                    0.54592
                ],
                [
                    0.0215,
                    -2.09658,
                    -0.04008
                ],
                [
                    0.52211,
                    -0.03722,
                    -2.15261
                ]
            ],
            [
                [
                    -2.22327,
                    -0.19499,
                    -0.30769
                ],
                [
                    -0.19774,
                    -2.39704,
                    -0.45274
                ],
                [
                    -0.29329,
                    -0.43355,
                    -2.15261
                ]
            ],
            [
                [
                    -2.22323,
                    0.195,
                    0.30767
                ],
                [
                    0.19774,
                    -2.39704,
                    -0.45274
                ],
                [
                    0.29329,
                    -0.43355,
                    -2.15261
                ]
            ],
            [
                [
                    -2.52368,
                    -0.02435,
                    -0.54594
                ],
                [
                    -0.0215,
                    -2.09658,
                    -0.04008
                ],
                [
                    -0.52211,
                    -0.03722,
                    -2.15261
                ]
            ],
            [
                [
                    -2.18344,
                    -0.1749,
                    0.23823
                ],
                [
                    -0.17204,
                    -2.43672,
                    0.49279
                ],
                [
                    0.22882,
                    0.47077,
                    -2.15261
                ]
            ]
        ]
    },
    "band_gap": 2.9642,
    "is_direct": false,
    "formula": "Ba3NaSbO6"
}