{
    "mp_id": "mp-1191636",
    "nelements": 4,
    "nsites": 24,
    "elements": [
        "B",
        "Cd",
        "Cs",
        "O"
    ],
    "structure": {
        "@module": "pymatgen.core.structure",
        "@class": "Structure",
        "charge": null,
        "lattice": {
            "matrix": [
                [
                    7.49197895,
                    0.0,
                    0.0
                ],
                [
                    0.0,
                    7.49197895,
                    0.0
                ],
                [
                    0.0,
                    0.0,
                    7.49197895
                ]
            ],
            "a": 7.49197895,
            "b": 7.49197895,
            "c": 7.49197895,
            "alpha": 90.0,
            "beta": 90.0,
            "gamma": 90.0,
            "volume": 420.52289488441755
        },
        "sites": [
            {
                "species": [
                    {
                        "element": "Cs",
                        "occu": 1
                    }
                ],
                "abc": [
                    0.63727475,
                    0.13727475,
                    0.36272525
                ],
                "xyz": [
                    4.774449012366513,
                    1.0284595373665124,
                    2.7175299376334876
                ],
                "label": "Cs",
                "properties": {}
            },
            {
                "species": [
                    {
                        "element": "Cs",
                        "occu": 1
                    }
                ],
                "abc": [
                    0.13727475,
                    0.36272525,
                    0.63727475
                ],
                "xyz": [
                    1.0284595373665124,
                    2.7175299376334876,
                    4.774449012366513
                ],
                "label": "Cs",
                "properties": {}
            },
            {
                "species": [
                    {
                        "element": "Cs",
                        "occu": 1
                    }
                ],
                "abc": [
                    0.36272525,
                    0.63727475,
                    0.13727475
                ],
                "xyz": [
                    2.7175299376334876,
                    4.774449012366513,
                    1.0284595373665124
                ],
                "label": "Cs",
                "properties": {}
            },
            {
                "species": [
                    {
                        "element": "Cs",
                        "occu": 1
                    }
                ],
                "abc": [
                    0.86272525,
                    0.86272525,
                    0.86272525
                ],
                "xyz": [
                    6.463519412633487,
                    6.463519412633487,
                    6.463519412633487
                ],
                "label": "Cs",
                "properties": {}
            },
            {
                "species": [
                    {
                        "element": "Cd",
                        "occu": 1
                    }
                ],
                "abc": [
                    0.64661076,
                    0.35338924,
                    0.85338924
                ],
                "xyz": [
                    4.844394202763501,
                    2.647584747236498,
                    6.393574222236499
                ],
                "label": "Cd",
                "properties": {}
            },
            {
                "species": [
                    {
                        "element": "Cd",
                        "occu": 1
                    }
                ],
                "abc": [
                    0.14661076,
                    0.14661076,
                    0.14661076
                ],
                "xyz": [
                    1.098404727763502,
                    1.098404727763502,
                    1.098404727763502
                ],
                "label": "Cd",
                "properties": {}
            },
            {
                "species": [
                    {
                        "element": "Cd",
                        "occu": 1
                    }
                ],
                "abc": [
                    0.85338924,
                    0.64661076,
                    0.35338924
                ],
                "xyz": [
                    6.393574222236499,
                    4.844394202763501,
                    2.647584747236498
                ],
                "label": "Cd",
                "properties": {}
            },
            {
                "species": [
                    {
                        "element": "Cd",
                        "occu": 1
                    }
                ],
                "abc": [
                    0.35338924,
                    0.85338924,
                    0.64661076
                ],
                "xyz": [
                    2.647584747236498,
                    6.393574222236499,
                    4.844394202763501
                ],
                "label": "Cd",
                "properties": {}
            },
            {
                "species": [
                    {
                        "element": "B",
                        "occu": 1
                    }
                ],
                "abc": [
                    0.59528441,
                    0.59528441,
                    0.59528441
                ],
                "xyz": [
                    4.45985826898317,
                    4.45985826898317,
                    4.45985826898317
                ],
                "label": "B",
                "properties": {}
            },
            {
                "species": [
                    {
                        "element": "B",
                        "occu": 1
                    }
                ],
                "abc": [
                    0.40471559,
                    0.09528441,
                    0.90471559
                ],
                "xyz": [
                    3.0321206810168304,
                    0.7138687939831695,
                    6.77811015601683
                ],
                "label": "B",
                "properties": {}
            },
            {
                "species": [
                    {
                        "element": "B",
                        "occu": 1
                    }
                ],
                "abc": [
                    0.09528441,
                    0.90471559,
                    0.40471559
                ],
                "xyz": [
                    0.7138687939831695,
                    6.77811015601683,
                    3.0321206810168304
                ],
                "label": "B",
                "properties": {}
            },
            {
                "species": [
                    {
                        "element": "B",
                        "occu": 1
                    }
                ],
                "abc": [
                    0.90471559,
                    0.40471559,
                    0.09528441
                ],
                "xyz": [
                    6.77811015601683,
                    3.0321206810168304,
                    0.7138687939831695
                ],
                "label": "B",
                "properties": {}
            },
            {
                "species": [
                    {
                        "element": "O",
                        "occu": 1
                    }
                ],
                "abc": [
                    0.52809662,
                    0.08411431,
                    0.76664057
                ],
                "xyz": [
                    3.956488760606149,
                    0.6301826399137744,
                    5.743655012656001
                ],
                "label": "O",
                "properties": {}
            },
            {
                "species": [
                    {
                        "element": "O",
                        "occu": 1
                    }
                ],
                "abc": [
                    0.23335943,
                    0.02809662,
                    0.41588569
                ],
                "xyz": [
                    1.7483239373439985,
                    0.210499285606149,
                    3.115806835086225
                ],
                "label": "O",
                "properties": {}
            },
            {
                "species": [
                    {
                        "element": "O",
                        "occu": 1
                    }
                ],
                "abc": [
                    0.58411431,
                    0.73335943,
                    0.47190338
                ],
                "xyz": [
                    4.376172114913775,
                    5.494313412343999,
                    3.535490189393851
                ],
                "label": "O",
                "properties": {}
            },
            {
                "species": [
                    {
                        "element": "O",
                        "occu": 1
                    }
                ],
                "abc": [
                    0.02809662,
                    0.41588569,
                    0.23335943
                ],
                "xyz": [
                    0.210499285606149,
                    3.115806835086225,
                    1.7483239373439985
                ],
                "label": "O",
                "properties": {}
            },
            {
                "species": [
                    {
                        "element": "O",
                        "occu": 1
                    }
                ],
                "abc": [
                    0.73335943,
                    0.47190338,
                    0.58411431
                ],
                "xyz": [
                    5.494313412343999,
                    3.535490189393851,
                    4.376172114913775
                ],
                "label": "O",
                "properties": {}
            },
            {
                "species": [
                    {
                        "element": "O",
                        "occu": 1
                    }
                ],
                "abc": [
                    0.08411431,
                    0.76664057,
                    0.52809662
                ],
                "xyz": [
                    0.6301826399137744,
                    5.743655012656001,
                    3.956488760606149
                ],
                "label": "O",
                "properties": {}
            },
            {
                "species": [
                    {
                        "element": "O",
                        "occu": 1
                    }
                ],
                "abc": [
                    0.47190338,
                    0.58411431,
                    0.73335943
                ],
                "xyz": [
                    3.535490189393851,
                    4.376172114913775,
                    5.494313412343999
                ],
                "label": "O",
                "properties": {}
            },
            {
                "species": [
                    {
                        "element": "O",
                        "occu": 1
                    }
                ],
                "abc": [
                    0.76664057,
                    0.52809662,
                    0.08411431
                ],
                "xyz": [
                    5.743655012656001,
                    3.956488760606149,
                    0.6301826399137744
                ],
                "label": "O",
                "properties": {}
            },
            {
                "species": [
                    {
                        "element": "O",
                        "occu": 1
                    }
                ],
                "abc": [
                    0.41588569,
                    0.23335943,
                    0.02809662
                ],
                "xyz": [
                    3.115806835086225,
                    1.7483239373439985,
                    0.210499285606149
                ],
                "label": "O",
                "properties": {}
            },
            {
                "species": [
                    {
                        "element": "O",
                        "occu": 1
                    }
                ],
                "abc": [
                    0.97190338,
                    0.91588569,
                    0.26664057
                ],
                "xyz": [
                    7.281479664393851,
                    6.861796310086225,
                    1.9976655376560017
                ],
                "label": "O",
                "properties": {}
            },
            {
                "species": [
                    {
                        "element": "O",
                        "occu": 1
                    }
                ],
                "abc": [
                    0.26664057,
                    0.97190338,
                    0.91588569
                ],
                "xyz": [
                    1.9976655376560017,
                    7.281479664393851,
                    6.861796310086225
                ],
                "label": "O",
                "properties": {}
            },
            {
                "species": [
                    {
                        "element": "O",
                        "occu": 1
                    }
                ],
                "abc": [
                    0.91588569,
                    0.26664057,
                    0.97190338
                ],
                "xyz": [
                    6.861796310086225,
                    1.9976655376560017,
                    7.281479664393851
                ],
                "label": "O",
                "properties": {}
            }
        ]
    },
    "spacegroup": {
        "source": "spglib",
        "symbol": "P2_13",
        "number": 198,
        "point_group": "23",
        "crystal_system": "cubic",
        "hall": "P 2ac 2ab 3"
    },
    "dielectric": {
        "epsilon_ionic": [
            [
                6.16970068,
                -1.8e-07,
                -1.8e-07
            ],
            [
                -1.8e-07,
                6.17002583,
                -1.8e-07
            ],
            [
                -1.8e-07,
                -1.8e-07,
                6.17024736
            ]
        ],
        "epsilon_ionic_avg": 6.16999129,
        "epsilon_ionic_eig": [
            6.169700679841023,
            6.17002582995355,
            6.170247360205426
        ],
        "epsilon_electronic": [
            [
                3.13240217,
                0.0,
                0.0
            ],
            [
                -0.0,
                3.13240217,
                0.0
            ],
            [
                -0.0,
                0.0,
                3.13240217
            ]
        ],
        "epsilon_electronic_avg": 3.13240217,
        "epsilon_electronic_eig": [
            3.13240217,
            3.13240217,
            3.13240217
        ]
    },
    "phonon": {
        "lowest_freq": -0.06283326949570346,
        "frequency": [
            -0.06283326949570346,
            -0.06283326949570346,
            -0.06283326949570346,
            1.3578466530432867,
            1.4380657491073543,
            1.4380657491073543,
            1.5087769025401438,
            1.5087769025401438,
            1.5087769025401438,
            1.6975877562751276,
            1.6975877562751276,
            1.6975877562751276,
            1.9487969313260805,
            1.9487969313260805,
            1.9487969313260805,
            2.072253575181542,
            2.2719800452876955,
            2.2719800452876955,
            3.063984782071301,
            3.063984782071301,
            3.063984782071301,
            3.4457956872447846,
            3.7173460368948055,
            3.7173460368948055,
            3.7173460368948055,
            4.697554710458654,
            4.697554710458654,
            4.697554710458654,
            4.777770549115071,
            4.777770549115071,
            4.808553426255643,
            4.808553426255643,
            4.808553426255643,
            5.542253613600285,
            5.542253613600285,
            5.542253613600285,
            6.199194850081343,
            6.199194850081343,
            6.199194850081343,
            7.5358943345016245,
            7.5358943345016245,
            7.820449438474797,
            7.820449438474797,
            7.820449438474797,
            8.245618927874467,
            8.245618927874467,
            8.245618927874467,
            9.246565977531331,
            17.090241230260894,
            17.090241230260894,
            17.39296213845819,
            17.39296213845819,
            17.39296213845819,
            18.20986820198044,
            18.20986820198044,
            18.20986820198044,
            20.753797162700216,
            20.845439962555503,
            20.845439962555503,
            20.845439962555503,
            25.811798101784195,
            25.811798101784195,
            25.811798101784195,
            25.82734999683708,
            36.84799271084914,
            36.84799271084914,
            37.08290311857689,
            37.08290311857689,
            37.08290311857689,
            37.32757026756103,
            37.32757026756103,
            37.32757026756103
        ]
    },
    "born_effective_charge": {
        "avg_abs_trace": 1.7712033333333332,
        "tensors": [
            [
                [
                    1.35182,
                    0.03648,
                    -0.0796
                ],
                [
                    0.07954,
                    1.35191,
                    -0.03653
                ],
                [
                    -0.03666,
                    -0.07964,
                    1.35192
                ]
            ],
            [
                [
                    1.35182,
                    -0.03648,
                    0.0796
                ],
                [
                    -0.07959,
                    1.35189,
                    -0.03658
                ],
                [
                    0.03661,
                    -0.07959,
                    1.35194
                ]
            ],
            [
                [
                    1.3518,
                    -0.03653,
                    -0.07965
                ],
                [
                    -0.07954,
                    1.35191,
                    0.03653
                ],
                [
                    -0.03661,
                    0.07959,
                    1.35194
                ]
            ],
            [
                [
                    1.3518,
                    0.03653,
                    0.07965
                ],
                [
                    0.07959,
                    1.35189,
                    0.03658
                ],
                [
                    0.03666,
                    0.07964,
                    1.35192
                ]
            ],
            [
                [
                    2.35241,
                    0.35838,
                    0.21197
                ],
                [
                    0.21206,
                    2.35246,
                    -0.35836
                ],
                [
                    0.35836,
                    -0.21206,
                    2.35245
                ]
            ],
            [
                [
                    2.35241,
                    -0.35838,
                    -0.21197
                ],
                [
                    -0.21197,
                    2.35239,
                    -0.35838
                ],
                [
                    -0.35838,
                    -0.21197,
                    2.35239
                ]
            ],
            [
                [
                    2.35248,
                    0.35836,
                    -0.21206
                ],
                [
                    0.21197,
                    2.35239,
                    0.35838
                ],
                [
                    -0.35836,
                    0.21206,
                    2.35245
                ]
            ],
            [
                [
                    2.35248,
                    -0.35836,
                    0.21206
                ],
                [
                    -0.21206,
                    2.35246,
                    0.35836
                ],
                [
                    0.35838,
                    0.21197,
                    2.35239
                ]
            ],
            [
                [
                    1.60928,
                    -0.66937,
                    -0.77662
                ],
                [
                    -0.77662,
                    1.60926,
                    -0.66937
                ],
                [
                    -0.66937,
                    -0.77662,
                    1.60926
                ]
            ],
            [
                [
                    1.60934,
                    0.66929,
                    -0.77673
                ],
                [
                    0.77662,
                    1.60926,
                    0.66937
                ],
                [
                    -0.66929,
                    0.77673,
                    1.60932
                ]
            ],
            [
                [
                    1.60928,
                    0.66937,
                    0.77662
                ],
                [
                    0.77673,
                    1.60933,
                    -0.66929
                ],
                [
                    0.66929,
                    -0.77673,
                    1.60932
                ]
            ],
            [
                [
                    1.60934,
                    -0.66929,
                    0.77673
                ],
                [
                    -0.77673,
                    1.60933,
                    0.66929
                ],
                [
                    0.66937,
                    0.77662,
                    1.60926
                ]
            ],
            [
                [
                    -1.77484,
                    -0.21442,
                    0.47853
                ],
                [
                    -0.36467,
                    -1.74754,
                    -0.33166
                ],
                [
                    0.38091,
                    -0.34262,
                    -1.79086
                ]
            ],
            [
                [
                    -1.79127,
                    -0.3813,
                    -0.34292
                ],
                [
                    -0.47853,
                    -1.77486,
                    0.21442
                ],
                [
                    -0.33159,
                    0.36451,
                    -1.74733
                ]
            ],
            [
                [
                    -1.74752,
                    0.33166,
                    0.36467
                ],
                [
                    0.34292,
                    -1.79129,
                    0.3813
                ],
                [
                    0.21431,
                    0.47906,
                    -1.77539
                ]
            ],
            [
                [
                    -1.77484,
                    0.21442,
                    -0.47853
                ],
                [
                    0.36451,
                    -1.74732,
                    -0.33159
                ],
                [
                    -0.3813,
                    -0.34292,
                    -1.7913
                ]
            ],
            [
                [
                    -1.79127,
                    0.3813,
                    0.34292
                ],
                [
                    0.47906,
                    -1.77538,
                    0.21431
                ],
                [
                    0.33166,
                    0.36467,
                    -1.74754
                ]
            ],
            [
                [
                    -1.74752,
                    -0.33166,
                    -0.36467
                ],
                [
                    -0.34262,
                    -1.79086,
                    0.38091
                ],
                [
                    -0.21442,
                    0.47853,
                    -1.77486
                ]
            ],
            [
                [
                    -1.77537,
                    0.21431,
                    0.47906
                ],
                [
                    0.36467,
                    -1.74754,
                    0.33166
                ],
                [
                    0.3813,
                    0.34292,
                    -1.7913
                ]
            ],
            [
                [
                    -1.79084,
                    0.38091,
                    -0.34262
                ],
                [
                    0.47853,
                    -1.77486,
                    -0.21442
                ],
                [
                    -0.33166,
                    -0.36467,
                    -1.74754
                ]
            ],
            [
                [
                    -1.7473,
                    -0.33159,
                    0.36451
                ],
                [
                    -0.34292,
                    -1.79129,
                    -0.3813
                ],
                [
                    0.21442,
                    -0.47853,
                    -1.77486
                ]
            ],
            [
                [
                    -1.77537,
                    -0.21431,
                    -0.47906
                ],
                [
                    -0.36451,
                    -1.74732,
                    0.33159
                ],
                [
                    -0.38091,
                    0.34262,
                    -1.79086
                ]
            ],
            [
                [
                    -1.79084,
                    -0.38091,
                    0.34262
                ],
                [
                    -0.47906,
                    -1.77538,
                    -0.21431
                ],
                [
                    0.33159,
                    -0.36451,
                    -1.74733
                ]
            ],
            [
                [
                    -1.7473,
                    0.33159,
                    -0.36451
                ],
                [
                    0.34262,
                    -1.79086,
                    -0.38091
                ],
                [
                    -0.21431,
                    -0.47906,
                    -1.77539
                ]
            ]
        ]
    },
    "band_gap": 1.6901000000000002,
    "is_direct": false,
    "formula": "CsCdBO3"
}