{
    "mp_id": "mp-1192906",
    "nelements": 3,
    "nsites": 30,
    "elements": [
        "Ba",
        "O",
        "Ta"
    ],
    "structure": {
        "@module": "pymatgen.core.structure",
        "@class": "Structure",
        "charge": null,
        "lattice": {
            "matrix": [
                [
                    6.09252965,
                    1.77e-06,
                    0.0
                ],
                [
                    -3.04626636,
                    5.27628461,
                    0.0
                ],
                [
                    0.0,
                    0.0,
                    16.56937922
                ]
            ],
            "a": 6.092529650000257,
            "b": 6.092529689857121,
            "c": 16.56937922,
            "alpha": 90.0,
            "beta": 90.0,
            "gamma": 119.99999980677936,
            "volume": 532.6380352921401
        },
        "sites": [
            {
                "species": [
                    {
                        "element": "Ba",
                        "occu": 1
                    }
                ],
                "abc": [
                    0.0,
                    0.0,
                    0.75
                ],
                "xyz": [
                    0.0,
                    0.0,
                    12.427034414999998
                ],
                "label": "Ba",
                "properties": {}
            },
            {
                "species": [
                    {
                        "element": "Ba",
                        "occu": 1
                    }
                ],
                "abc": [
                    0.0,
                    0.0,
                    0.25
                ],
                "xyz": [
                    0.0,
                    0.0,
                    4.142344805
                ],
                "label": "Ba",
                "properties": {}
            },
            {
                "species": [
                    {
                        "element": "Ba",
                        "occu": 1
                    }
                ],
                "abc": [
                    0.666667,
                    0.333333,
                    0.63363703
                ],
                "xyz": [
                    3.0462673595986707,
                    1.75876095790572,
                    10.498972237904516
                ],
                "label": "Ba",
                "properties": {}
            },
            {
                "species": [
                    {
                        "element": "Ba",
                        "occu": 1
                    }
                ],
                "abc": [
                    0.333333,
                    0.666667,
                    0.13363703
                ],
                "xyz": [
                    -4.069598670053409e-06,
                    3.5175254220942804,
                    2.2142826279045162
                ],
                "label": "Ba",
                "properties": {}
            },
            {
                "species": [
                    {
                        "element": "Ba",
                        "occu": 1
                    }
                ],
                "abc": [
                    0.333333,
                    0.666667,
                    0.36636297
                ],
                "xyz": [
                    -4.069598670053409e-06,
                    3.5175254220942804,
                    6.070406982095483
                ],
                "label": "Ba",
                "properties": {}
            },
            {
                "species": [
                    {
                        "element": "Ba",
                        "occu": 1
                    }
                ],
                "abc": [
                    0.666667,
                    0.333333,
                    0.86636297
                ],
                "xyz": [
                    3.0462673595986707,
                    1.75876095790572,
                    14.355096592095482
                ],
                "label": "Ba",
                "properties": {}
            },
            {
                "species": [
                    {
                        "element": "Ba",
                        "occu": 1
                    }
                ],
                "abc": [
                    0.0,
                    0.0,
                    0.5
                ],
                "xyz": [
                    0.0,
                    0.0,
                    8.28468961
                ],
                "label": "Ba",
                "properties": {}
            },
            {
                "species": [
                    {
                        "element": "Ba",
                        "occu": 1
                    }
                ],
                "abc": [
                    0.0,
                    0.0,
                    0.0
                ],
                "xyz": [
                    0.0,
                    0.0,
                    0.0
                ],
                "label": "Ba",
                "properties": {}
            },
            {
                "species": [
                    {
                        "element": "Ta",
                        "occu": 1
                    }
                ],
                "abc": [
                    0.666667,
                    0.333333,
                    0.33973763
                ],
                "xyz": [
                    3.0462673595986707,
                    1.75876095790572,
                    5.629241626774048
                ],
                "label": "Ta",
                "properties": {}
            },
            {
                "species": [
                    {
                        "element": "Ta",
                        "occu": 1
                    }
                ],
                "abc": [
                    0.333333,
                    0.666667,
                    0.83973763
                ],
                "xyz": [
                    -4.069598670053409e-06,
                    3.5175254220942804,
                    13.913931236774047
                ],
                "label": "Ta",
                "properties": {}
            },
            {
                "species": [
                    {
                        "element": "Ta",
                        "occu": 1
                    }
                ],
                "abc": [
                    0.333333,
                    0.666667,
                    0.66026237
                ],
                "xyz": [
                    -4.069598670053409e-06,
                    3.5175254220942804,
                    10.94013759322595
                ],
                "label": "Ta",
                "properties": {}
            },
            {
                "species": [
                    {
                        "element": "Ta",
                        "occu": 1
                    }
                ],
                "abc": [
                    0.666667,
                    0.333333,
                    0.16026237
                ],
                "xyz": [
                    3.0462673595986707,
                    1.75876095790572,
                    2.655447983225951
                ],
                "label": "Ta",
                "properties": {}
            },
            {
                "species": [
                    {
                        "element": "O",
                        "occu": 1
                    }
                ],
                "abc": [
                    0.52865762,
                    0.95455134,
                    0.75
                ],
                "xyz": [
                    0.3130445886135109,
                    5.036485480420865,
                    12.427034414999998
                ],
                "label": "O",
                "properties": {}
            },
            {
                "species": [
                    {
                        "element": "O",
                        "occu": 1
                    }
                ],
                "abc": [
                    0.04544866,
                    0.57410628,
                    0.75
                ],
                "xyz": [
                    -1.4719833392259718,
                    3.029148210112479,
                    12.427034414999998
                ],
                "label": "O",
                "properties": {}
            },
            {
                "species": [
                    {
                        "element": "O",
                        "occu": 1
                    }
                ],
                "abc": [
                    0.42589372,
                    0.47134238,
                    0.75
                ],
                "xyz": [
                    1.1589356806124613,
                    2.4869372994666565,
                    12.427034414999998
                ],
                "label": "O",
                "properties": {}
            },
            {
                "species": [
                    {
                        "element": "O",
                        "occu": 1
                    }
                ],
                "abc": [
                    0.47134238,
                    0.04544866,
                    0.25
                ],
                "xyz": [
                    2.7332187013864897,
                    0.23980089957913522,
                    4.142344805
                ],
                "label": "O",
                "properties": {}
            },
            {
                "species": [
                    {
                        "element": "O",
                        "occu": 1
                    }
                ],
                "abc": [
                    0.95455134,
                    0.42589372,
                    0.25
                ],
                "xyz": [
                    4.518246629225972,
                    2.247138169887521,
                    4.142344805
                ],
                "label": "O",
                "properties": {}
            },
            {
                "species": [
                    {
                        "element": "O",
                        "occu": 1
                    }
                ],
                "abc": [
                    0.57410628,
                    0.52865762,
                    0.25
                ],
                "xyz": [
                    1.8873276093875386,
                    2.789349080533344,
                    4.142344805
                ],
                "label": "O",
                "properties": {}
            },
            {
                "species": [
                    {
                        "element": "O",
                        "occu": 1
                    }
                ],
                "abc": [
                    0.10543417,
                    0.35458713,
                    0.6079048
                ],
                "xyz": [
                    -0.4378060389598063,
                    1.87090280354155,
                    10.072605160858256
                ],
                "label": "O",
                "properties": {}
            },
            {
                "species": [
                    {
                        "element": "O",
                        "occu": 1
                    }
                ],
                "abc": [
                    0.64541287,
                    0.75084705,
                    0.6079048
                ],
                "xyz": [
                    1.6449169370463577,
                    3.9616838767596803,
                    10.072605160858256
                ],
                "label": "O",
                "properties": {}
            },
            {
                "species": [
                    {
                        "element": "O",
                        "occu": 1
                    }
                ],
                "abc": [
                    0.24915295,
                    0.89456583,
                    0.6079048
                ],
                "xyz": [
                    -1.2071140594745113,
                    4.719984362461598,
                    10.072605160858256
                ],
                "label": "O",
                "properties": {}
            },
            {
                "species": [
                    {
                        "element": "O",
                        "occu": 1
                    }
                ],
                "abc": [
                    0.89456583,
                    0.64541287,
                    0.1079048
                ],
                "xyz": [
                    3.484069328959807,
                    3.4053835764584504,
                    1.7879155508582558
                ],
                "label": "O",
                "properties": {}
            },
            {
                "species": [
                    {
                        "element": "O",
                        "occu": 1
                    }
                ],
                "abc": [
                    0.35458713,
                    0.24915295,
                    0.1079048
                ],
                "xyz": [
                    1.4013463529536425,
                    1.3146025032403197,
                    1.7879155508582558
                ],
                "label": "O",
                "properties": {}
            },
            {
                "species": [
                    {
                        "element": "O",
                        "occu": 1
                    }
                ],
                "abc": [
                    0.75084705,
                    0.10543417,
                    0.1079048
                ],
                "xyz": [
                    4.253377349474511,
                    0.5563020175384022,
                    1.7879155508582558
                ],
                "label": "O",
                "properties": {}
            },
            {
                "species": [
                    {
                        "element": "O",
                        "occu": 1
                    }
                ],
                "abc": [
                    0.89456583,
                    0.64541287,
                    0.3920952
                ],
                "xyz": [
                    3.484069328959807,
                    3.4053835764584504,
                    6.496774059141743
                ],
                "label": "O",
                "properties": {}
            },
            {
                "species": [
                    {
                        "element": "O",
                        "occu": 1
                    }
                ],
                "abc": [
                    0.35458713,
                    0.24915295,
                    0.3920952
                ],
                "xyz": [
                    1.4013463529536425,
                    1.3146025032403197,
                    6.496774059141743
                ],
                "label": "O",
                "properties": {}
            },
            {
                "species": [
                    {
                        "element": "O",
                        "occu": 1
                    }
                ],
                "abc": [
                    0.75084705,
                    0.10543417,
                    0.3920952
                ],
                "xyz": [
                    4.253377349474511,
                    0.5563020175384022,
                    6.496774059141743
                ],
                "label": "O",
                "properties": {}
            },
            {
                "species": [
                    {
                        "element": "O",
                        "occu": 1
                    }
                ],
                "abc": [
                    0.10543417,
                    0.35458713,
                    0.8920952
                ],
                "xyz": [
                    -0.4378060389598063,
                    1.87090280354155,
                    14.781463669141742
                ],
                "label": "O",
                "properties": {}
            },
            {
                "species": [
                    {
                        "element": "O",
                        "occu": 1
                    }
                ],
                "abc": [
                    0.64541287,
                    0.75084705,
                    0.8920952
                ],
                "xyz": [
                    1.6449169370463577,
                    3.9616838767596803,
                    14.781463669141742
                ],
                "label": "O",
                "properties": {}
            },
            {
                "species": [
                    {
                        "element": "O",
                        "occu": 1
                    }
                ],
                "abc": [
                    0.24915295,
                    0.89456583,
                    0.8920952
                ],
                "xyz": [
                    -1.2071140594745113,
                    4.719984362461598,
                    14.781463669141742
                ],
                "label": "O",
                "properties": {}
            }
        ]
    },
    "spacegroup": {
        "source": "spglib",
        "symbol": "P6_3/m",
        "number": 176,
        "point_group": "6/m",
        "crystal_system": "hexagonal",
        "hall": "-P 6c"
    },
    "dielectric": {
        "epsilon_ionic": [
            [
                12.40130799,
                -0.00036259,
                0.0
            ],
            [
                -0.00036259,
                12.40021535,
                -2e-08
            ],
            [
                0.0,
                -2e-08,
                10.94227053
            ]
        ],
        "epsilon_ionic_avg": 11.914597956666668,
        "epsilon_ionic_eig": [
            12.40141736585213,
            12.400105974147873,
            10.94227053
        ],
        "epsilon_electronic": [
            [
                4.03158445,
                -4.77e-06,
                0.0
            ],
            [
                4.77e-06,
                4.0315833,
                0.0
            ],
            [
                0.0,
                0.0,
                3.59711737
            ]
        ],
        "epsilon_electronic_avg": 3.886761706666667,
        "epsilon_electronic_eig": [
            4.031583875000001,
            4.031583875000001,
            3.59711737
        ]
    },
    "phonon": {
        "lowest_freq": -0.026033801176251033,
        "frequency": [
            -0.026033801176251033,
            -0.026033797468069577,
            -0.013321219176164315,
            1.18698129254681,
            1.1869814603557671,
            1.2587456763213694,
            1.2587458433003733,
            1.4639492274827934,
            1.4948546565201202,
            1.4948548388161906,
            1.9369284789033374,
            2.199892344356091,
            2.2814127812830876,
            2.851074649999596,
            2.85107501003243,
            2.882189539193651,
            2.885106214280988,
            2.8983515978907235,
            2.898351918321291,
            3.0094608763587063,
            3.0206085432510283,
            3.0206089194866523,
            3.2008079965434963,
            3.2008082905131636,
            3.861339957999376,
            3.9272997609933644,
            3.9273002588420254,
            4.001328496097489,
            4.00132897862746,
            4.009403903613107,
            4.009404385171206,
            4.045392917350516,
            4.045393373479483,
            4.261859222298591,
            4.990380696917787,
            4.990381039737497,
            5.080006833648522,
            5.08000726664028,
            5.084036677359946,
            5.0865278583691715,
            5.086528146660279,
            5.212123169295725,
            5.212123614757407,
            5.2595260366724075,
            6.192763764170299,
            6.53882835260787,
            6.543751651759405,
            6.918578921784106,
            8.150369304291074,
            8.289292040170793,
            8.836160246699379,
            9.034292925211693,
            9.034293195736602,
            9.346684111504493,
            9.34668446450687,
            9.360129858282212,
            9.360130119389837,
            9.537792644157149,
            9.537792990086427,
            9.887124693736336,
            9.88712573193554,
            9.926411879127107,
            9.926412617762956,
            10.321374906631084,
            10.491342527811922,
            10.631394904426202,
            12.86993485529475,
            12.869934864789753,
            12.882378155660758,
            12.882378165146587,
            13.128120687615743,
            13.128120780698424,
            13.153034706998179,
            13.153034799904544,
            14.809784237465742,
            16.088988733305595,
            16.158410562065008,
            17.26161176142355,
            17.917417926254444,
            17.91741894928184,
            17.94488834275148,
            17.9448893642128,
            18.378427448992657,
            18.37842844635815,
            18.407924600274253,
            18.40792566242604,
            21.418911508801635,
            22.50847050100921,
            22.61013770009926,
            22.79407844376401
        ]
    },
    "born_effective_charge": {
        "avg_abs_trace": 2.8317905555555556,
        "tensors": [
            [
                [
                    2.96609,
                    0.01143,
                    -0.0
                ],
                [
                    -0.01183,
                    2.96564,
                    0.0
                ],
                [
                    0.0,
                    0.0,
                    1.84253
                ]
            ],
            [
                [
                    2.96594,
                    0.01154,
                    -0.0
                ],
                [
                    -0.01159,
                    2.96579,
                    0.0
                ],
                [
                    0.0,
                    0.0,
                    1.84253
                ]
            ],
            [
                [
                    3.09039,
                    -0.09103,
                    -0.00066
                ],
                [
                    0.09129,
                    3.09042,
                    -3e-05
                ],
                [
                    0.0,
                    0.0,
                    1.97274
                ]
            ],
            [
                [
                    3.09079,
                    -0.09124,
                    0.00064
                ],
                [
                    0.091,
                    3.09051,
                    -0.00019
                ],
                [
                    0.0,
                    0.0,
                    1.97274
                ]
            ],
            [
                [
                    3.09079,
                    -0.09124,
                    -0.00064
                ],
                [
                    0.091,
                    3.09051,
                    0.00019
                ],
                [
                    0.0,
                    0.0,
                    1.97233
                ]
            ],
            [
                [
                    3.09039,
                    -0.09103,
                    0.00066
                ],
                [
                    0.09129,
                    3.09042,
                    3e-05
                ],
                [
                    0.0,
                    0.0,
                    1.97233
                ]
            ],
            [
                [
                    2.69608,
                    0.15557,
                    -0.00171
                ],
                [
                    -0.15598,
                    2.69612,
                    0.00047
                ],
                [
                    0.0,
                    0.0,
                    4.24407
                ]
            ],
            [
                [
                    2.69608,
                    0.15557,
                    0.00171
                ],
                [
                    -0.15598,
                    2.69612,
                    -0.00047
                ],
                [
                    0.0,
                    0.0,
                    4.24407
                ]
            ],
            [
                [
                    5.26296,
                    0.06859,
                    -0.00083
                ],
                [
                    -0.06871,
                    5.26257,
                    -0.00012
                ],
                [
                    0.0,
                    0.0,
                    4.47353
                ]
            ],
            [
                [
                    5.26288,
                    0.06851,
                    0.00084
                ],
                [
                    -0.06852,
                    5.2625,
                    7e-05
                ],
                [
                    0.0,
                    0.0,
                    4.47353
                ]
            ],
            [
                [
                    5.26288,
                    0.06851,
                    -0.00084
                ],
                [
                    -0.06852,
                    5.2625,
                    -7e-05
                ],
                [
                    0.0,
                    0.0,
                    4.47314
                ]
            ],
            [
                [
                    5.26296,
                    0.06859,
                    0.00083
                ],
                [
                    -0.06871,
                    5.26257,
                    0.00012
                ],
                [
                    0.0,
                    0.0,
                    4.47314
                ]
            ],
            [
                [
                    -1.78763,
                    -0.27128,
                    -0.0
                ],
                [
                    -0.25374,
                    -3.01523,
                    0.0
                ],
                [
                    -1e-05,
                    -9e-05,
                    -2.34744
                ]
            ],
            [
                [
                    -2.93567,
                    -0.41002,
                    -0.0
                ],
                [
                    -0.39112,
                    -1.86756,
                    0.0
                ],
                [
                    8e-05,
                    4e-05,
                    -2.34744
                ]
            ],
            [
                [
                    -2.48093,
                    0.65401,
                    -0.0
                ],
                [
                    0.67238,
                    -2.3213,
                    0.0
                ],
                [
                    -8e-05,
                    5e-05,
                    -2.34744
                ]
            ],
            [
                [
                    -1.78764,
                    -0.27175,
                    -0.0
                ],
                [
                    -0.25329,
                    -3.01485,
                    0.0
                ],
                [
                    1e-05,
                    9e-05,
                    -2.34744
                ]
            ],
            [
                [
                    -2.9357,
                    -0.41016,
                    -0.0
                ],
                [
                    -0.39077,
                    -1.86711,
                    0.0
                ],
                [
                    -8e-05,
                    -4e-05,
                    -2.34744
                ]
            ],
            [
                [
                    -2.48059,
                    0.65372,
                    -0.0
                ],
                [
                    0.67211,
                    -2.32116,
                    0.0
                ],
                [
                    8e-05,
                    -5e-05,
                    -2.34744
                ]
            ],
            [
                [
                    -1.8626,
                    -0.46382,
                    -0.13177
                ],
                [
                    -0.43191,
                    -3.19229,
                    -1.03168
                ],
                [
                    -0.07902,
                    -1.04859,
                    -1.98932
                ]
            ],
            [
                [
                    -3.24835,
                    -0.36819,
                    0.96021
                ],
                [
                    -0.33567,
                    -1.80676,
                    0.40075
                ],
                [
                    0.94761,
                    0.45586,
                    -1.98932
                ]
            ],
            [
                [
                    -2.47131,
                    0.78441,
                    -0.82632
                ],
                [
                    0.8153,
                    -2.58299,
                    0.63029
                ],
                [
                    -0.8686,
                    0.59272,
                    -1.98932
                ]
            ],
            [
                [
                    -1.8626,
                    -0.46311,
                    0.13188
                ],
                [
                    -0.43215,
                    -3.19253,
                    1.03149
                ],
                [
                    0.07902,
                    1.04859,
                    -1.98932
                ]
            ],
            [
                [
                    -3.24807,
                    -0.36794,
                    -0.96042
                ],
                [
                    -0.33627,
                    -1.80717,
                    -0.40074
                ],
                [
                    -0.94761,
                    -0.45586,
                    -1.98932
                ]
            ],
            [
                [
                    -2.47211,
                    0.78452,
                    0.82663
                ],
                [
                    0.81552,
                    -2.58249,
                    -0.6305
                ],
                [
                    0.8686,
                    -0.59272,
                    -1.98932
                ]
            ],
            [
                [
                    -1.8626,
                    -0.46311,
                    -0.13188
                ],
                [
                    -0.43215,
                    -3.19253,
                    -1.03149
                ],
                [
                    -0.07902,
                    -1.04869,
                    -1.98935
                ]
            ],
            [
                [
                    -3.24807,
                    -0.36794,
                    0.96042
                ],
                [
                    -0.33627,
                    -1.80717,
                    0.40074
                ],
                [
                    0.94771,
                    0.45591,
                    -1.98935
                ]
            ],
            [
                [
                    -2.47211,
                    0.78452,
                    -0.82663
                ],
                [
                    0.81552,
                    -2.58249,
                    0.6305
                ],
                [
                    -0.86868,
                    0.59278,
                    -1.98935
                ]
            ],
            [
                [
                    -1.8626,
                    -0.46382,
                    0.13177
                ],
                [
                    -0.43191,
                    -3.19229,
                    1.03168
                ],
                [
                    0.07902,
                    1.04869,
                    -1.98935
                ]
            ],
            [
                [
                    -3.24835,
                    -0.36819,
                    -0.96021
                ],
                [
                    -0.33567,
                    -1.80676,
                    -0.40075
                ],
                [
                    -0.94771,
                    -0.45591,
                    -1.98935
                ]
            ],
            [
                [
                    -2.47131,
                    0.78441,
                    0.82632
                ],
                [
                    0.8153,
                    -2.58299,
                    -0.63029
                ],
                [
                    0.86868,
                    -0.59278,
                    -1.98935
                ]
            ]
        ]
    },
    "band_gap": 4.1611,
    "is_direct": false,
    "formula": "Ba4Ta2O9"
}