{
    "mp_id": "mp-1100806",
    "nelements": 3,
    "nsites": 29,
    "elements": [
        "O",
        "Sc",
        "Zr"
    ],
    "structure": {
        "@module": "pymatgen.core.structure",
        "@class": "Structure",
        "charge": null,
        "lattice": {
            "matrix": [
                [
                    3.60770368,
                    0.0,
                    0.0
                ],
                [
                    0.0,
                    3.60770368,
                    0.0
                ],
                [
                    0.0,
                    0.0,
                    25.38908961
                ]
            ],
            "a": 3.60770368,
            "b": 3.60770368,
            "c": 25.38908961,
            "alpha": 90.0,
            "beta": 90.0,
            "gamma": 90.0,
            "volume": 330.452351941214
        },
        "sites": [
            {
                "species": [
                    {
                        "element": "Zr",
                        "occu": 1
                    }
                ],
                "abc": [
                    0.5,
                    0.0,
                    0.85466042
                ],
                "xyz": [
                    1.80385184,
                    0.0,
                    21.699049989500235
                ],
                "label": "Zr",
                "properties": {}
            },
            {
                "species": [
                    {
                        "element": "Zr",
                        "occu": 1
                    }
                ],
                "abc": [
                    0.0,
                    0.5,
                    0.75271831
                ],
                "xyz": [
                    0.0,
                    1.80385184,
                    19.11083262367776
                ],
                "label": "Zr",
                "properties": {}
            },
            {
                "species": [
                    {
                        "element": "Zr",
                        "occu": 1
                    }
                ],
                "abc": [
                    0.5,
                    0.0,
                    0.6513996
                ],
                "xyz": [
                    1.80385184,
                    0.0,
                    16.538442816318156
                ],
                "label": "Zr",
                "properties": {}
            },
            {
                "species": [
                    {
                        "element": "Zr",
                        "occu": 1
                    }
                ],
                "abc": [
                    0.0,
                    0.5,
                    0.55042325
                ],
                "xyz": [
                    0.0,
                    1.80385184,
                    13.974745217677432
                ],
                "label": "Zr",
                "properties": {}
            },
            {
                "species": [
                    {
                        "element": "Zr",
                        "occu": 1
                    }
                ],
                "abc": [
                    0.5,
                    0.0,
                    0.44957675
                ],
                "xyz": [
                    1.80385184,
                    0.0,
                    11.414344392322567
                ],
                "label": "Zr",
                "properties": {}
            },
            {
                "species": [
                    {
                        "element": "Zr",
                        "occu": 1
                    }
                ],
                "abc": [
                    0.0,
                    0.5,
                    0.3486004
                ],
                "xyz": [
                    0.0,
                    1.80385184,
                    8.850646793681843
                ],
                "label": "Zr",
                "properties": {}
            },
            {
                "species": [
                    {
                        "element": "Zr",
                        "occu": 1
                    }
                ],
                "abc": [
                    0.0,
                    0.5,
                    0.14533958
                ],
                "xyz": [
                    0.0,
                    1.80385184,
                    3.6900396204997636
                ],
                "label": "Zr",
                "properties": {}
            },
            {
                "species": [
                    {
                        "element": "Zr",
                        "occu": 1
                    }
                ],
                "abc": [
                    0.5,
                    0.0,
                    0.24728169
                ],
                "xyz": [
                    1.80385184,
                    0.0,
                    6.278256986322241
                ],
                "label": "Zr",
                "properties": {}
            },
            {
                "species": [
                    {
                        "element": "Sc",
                        "occu": 1
                    }
                ],
                "abc": [
                    0.5,
                    0.0,
                    0.05267745
                ],
                "xyz": [
                    1.80385184,
                    0.0,
                    1.3374324984762944
                ],
                "label": "Sc",
                "properties": {}
            },
            {
                "species": [
                    {
                        "element": "Sc",
                        "occu": 1
                    }
                ],
                "abc": [
                    0.0,
                    0.5,
                    0.94732255
                ],
                "xyz": [
                    0.0,
                    1.80385184,
                    24.051657111523703
                ],
                "label": "Sc",
                "properties": {}
            },
            {
                "species": [
                    {
                        "element": "O",
                        "occu": 1
                    }
                ],
                "abc": [
                    0.5,
                    0.5,
                    0.5
                ],
                "xyz": [
                    1.80385184,
                    1.80385184,
                    12.694544805
                ],
                "label": "O",
                "properties": {}
            },
            {
                "species": [
                    {
                        "element": "O",
                        "occu": 1
                    }
                ],
                "abc": [
                    0.0,
                    0.0,
                    0.39669887
                ],
                "xyz": [
                    0.0,
                    0.0,
                    10.07182315861574
                ],
                "label": "O",
                "properties": {}
            },
            {
                "species": [
                    {
                        "element": "O",
                        "occu": 1
                    }
                ],
                "abc": [
                    0.5,
                    0.5,
                    0.30230882
                ],
                "xyz": [
                    1.80385184,
                    1.80385184,
                    7.675345720873359
                ],
                "label": "O",
                "properties": {}
            },
            {
                "species": [
                    {
                        "element": "O",
                        "occu": 1
                    }
                ],
                "abc": [
                    0.0,
                    0.0,
                    0.189642
                ],
                "xyz": [
                    0.0,
                    0.0,
                    4.81483773181962
                ],
                "label": "O",
                "properties": {}
            },
            {
                "species": [
                    {
                        "element": "O",
                        "occu": 1
                    }
                ],
                "abc": [
                    0.5,
                    0.5,
                    0.10288101
                ],
                "xyz": [
                    1.80385184,
                    1.80385184,
                    2.612055182057306
                ],
                "label": "O",
                "properties": {}
            },
            {
                "species": [
                    {
                        "element": "O",
                        "occu": 1
                    }
                ],
                "abc": [
                    0.0,
                    0.0,
                    0.08505616
                ],
                "xyz": [
                    0.0,
                    0.0,
                    2.159498468122498
                ],
                "label": "O",
                "properties": {}
            },
            {
                "species": [
                    {
                        "element": "O",
                        "occu": 1
                    }
                ],
                "abc": [
                    0.5,
                    0.5,
                    0.0
                ],
                "xyz": [
                    1.80385184,
                    1.80385184,
                    0.0
                ],
                "label": "O",
                "properties": {}
            },
            {
                "species": [
                    {
                        "element": "O",
                        "occu": 1
                    }
                ],
                "abc": [
                    0.5,
                    0.5,
                    0.89711899
                ],
                "xyz": [
                    1.80385184,
                    1.80385184,
                    22.77703442794269
                ],
                "label": "O",
                "properties": {}
            },
            {
                "species": [
                    {
                        "element": "O",
                        "occu": 1
                    }
                ],
                "abc": [
                    0.0,
                    0.0,
                    0.91494384
                ],
                "xyz": [
                    0.0,
                    0.0,
                    23.2295911418775
                ],
                "label": "O",
                "properties": {}
            },
            {
                "species": [
                    {
                        "element": "O",
                        "occu": 1
                    }
                ],
                "abc": [
                    0.0,
                    0.0,
                    0.810358
                ],
                "xyz": [
                    0.0,
                    0.0,
                    20.57425187818038
                ],
                "label": "O",
                "properties": {}
            },
            {
                "species": [
                    {
                        "element": "O",
                        "occu": 1
                    }
                ],
                "abc": [
                    0.5,
                    0.5,
                    0.79727034
                ],
                "xyz": [
                    1.80385184,
                    1.80385184,
                    20.241968105655165
                ],
                "label": "O",
                "properties": {}
            },
            {
                "species": [
                    {
                        "element": "O",
                        "occu": 1
                    }
                ],
                "abc": [
                    0.5,
                    0.5,
                    0.69769118
                ],
                "xyz": [
                    1.80385184,
                    1.80385184,
                    17.71374388912664
                ],
                "label": "O",
                "properties": {}
            },
            {
                "species": [
                    {
                        "element": "O",
                        "occu": 1
                    }
                ],
                "abc": [
                    0.0,
                    0.0,
                    0.70666046
                ],
                "xyz": [
                    0.0,
                    0.0,
                    17.941465742783823
                ],
                "label": "O",
                "properties": {}
            },
            {
                "species": [
                    {
                        "element": "O",
                        "occu": 1
                    }
                ],
                "abc": [
                    0.0,
                    0.0,
                    0.60330113
                ],
                "xyz": [
                    0.0,
                    0.0,
                    15.317266451384258
                ],
                "label": "O",
                "properties": {}
            },
            {
                "species": [
                    {
                        "element": "O",
                        "occu": 1
                    }
                ],
                "abc": [
                    0.5,
                    0.5,
                    0.59865396
                ],
                "xyz": [
                    1.80385184,
                    1.80385184,
                    15.199279035821355
                ],
                "label": "O",
                "properties": {}
            },
            {
                "species": [
                    {
                        "element": "O",
                        "occu": 1
                    }
                ],
                "abc": [
                    0.0,
                    0.0,
                    0.5
                ],
                "xyz": [
                    0.0,
                    0.0,
                    12.694544805
                ],
                "label": "O",
                "properties": {}
            },
            {
                "species": [
                    {
                        "element": "O",
                        "occu": 1
                    }
                ],
                "abc": [
                    0.5,
                    0.5,
                    0.40134604
                ],
                "xyz": [
                    1.80385184,
                    1.80385184,
                    10.189810574178644
                ],
                "label": "O",
                "properties": {}
            },
            {
                "species": [
                    {
                        "element": "O",
                        "occu": 1
                    }
                ],
                "abc": [
                    0.0,
                    0.0,
                    0.29333954
                ],
                "xyz": [
                    0.0,
                    0.0,
                    7.447623867216179
                ],
                "label": "O",
                "properties": {}
            },
            {
                "species": [
                    {
                        "element": "O",
                        "occu": 1
                    }
                ],
                "abc": [
                    0.5,
                    0.5,
                    0.20272966
                ],
                "xyz": [
                    1.80385184,
                    1.80385184,
                    5.147121504344833
                ],
                "label": "O",
                "properties": {}
            }
        ]
    },
    "spacegroup": {
        "source": "spglib",
        "symbol": "P-4m2",
        "number": 115,
        "point_group": "-42m",
        "crystal_system": "tetragonal",
        "hall": "P -4 -2"
    },
    "dielectric": {
        "epsilon_ionic": [
            [
                35.2906134,
                0.0,
                -1.02e-06
            ],
            [
                0.0,
                35.29262783,
                6.6e-07
            ],
            [
                -1.02e-06,
                6.6e-07,
                15.48707105
            ]
        ],
        "epsilon_ionic_avg": 28.690104093333343,
        "epsilon_ionic_eig": [
            15.487071049999933,
            35.290613400000076,
            35.29262783000002
        ],
        "epsilon_electronic": [
            [
                5.24909397,
                -0.0,
                0.0
            ],
            [
                0.0,
                5.24909397,
                0.0
            ],
            [
                0.0,
                0.0,
                4.96678551
            ]
        ],
        "epsilon_electronic_avg": 5.15499115,
        "epsilon_electronic_eig": [
            5.24909397,
            5.24909397,
            4.96678551
        ]
    },
    "phonon": {
        "lowest_freq": -0.13424395740639747,
        "frequency": [
            -0.13424395740639747,
            -0.13241215981437357,
            -0.13241215981437357,
            1.487640926641406,
            1.487640926641406,
            1.6211292757110498,
            1.6211292757110498,
            2.220342313312213,
            2.220342313312213,
            2.609060173029069,
            2.609060173029069,
            2.7215187571949317,
            2.832556932143561,
            3.2753006838935814,
            3.2753006838935814,
            3.9098922587735263,
            3.9098922587735263,
            4.198388421884971,
            4.2852359560767805,
            4.2852359560767805,
            4.711778494403269,
            4.711778494403269,
            4.863916817376086,
            4.863916817376086,
            5.213130753161471,
            5.592688668060684,
            5.592688668060684,
            5.976073467928288,
            5.976073467928288,
            6.455646665797813,
            6.728757479796305,
            6.728757479796305,
            7.504702559388864,
            7.743582125657987,
            7.743582125657987,
            7.766611578911691,
            7.766611578911691,
            8.154355844165917,
            8.510558367072058,
            8.891122350214506,
            8.977111526092594,
            8.977111526092594,
            9.305182373817065,
            9.76338176577775,
            9.954492152705429,
            10.244030176346326,
            10.244030176346326,
            10.380409769138103,
            11.319394909890446,
            11.319394909890446,
            12.072469012390965,
            12.241153687695597,
            12.241153687695597,
            12.525765569923298,
            13.896912255698325,
            13.896912255698325,
            14.246357370674668,
            14.246357370674668,
            14.602692460244558,
            15.104404474177308,
            15.249697897686586,
            15.249697897686586,
            15.30152374912153,
            15.30152374912153,
            15.991700295906984,
            15.991700295906984,
            16.252641211894357,
            16.396316546499538,
            16.780020850593885,
            16.780020850593885,
            17.53660500552707,
            17.56388260569792,
            17.56388260569792,
            18.207969727026683,
            18.207969727026683,
            18.75627563998347,
            18.75627563998347,
            19.11574498102832,
            19.24663498390892,
            19.616208237454476,
            19.676583655982117,
            19.685262061617383,
            19.74558687225192,
            19.90245303519326,
            20.035099940524123,
            20.069269815807573,
            20.069269815807573
        ]
    },
    "born_effective_charge": {
        "avg_abs_trace": 3.4717689655172417,
        "tensors": [
            [
                [
                    5.2171,
                    0.0,
                    0.0
                ],
                [
                    0.0,
                    5.60551,
                    -0.0
                ],
                [
                    0.0,
                    0.0,
                    4.90965
                ]
            ],
            [
                [
                    5.60123,
                    0.0,
                    -0.0
                ],
                [
                    0.0,
                    5.20934,
                    -0.0
                ],
                [
                    0.0,
                    0.0,
                    5.02355
                ]
            ],
            [
                [
                    5.18123,
                    0.0,
                    -0.0
                ],
                [
                    0.0,
                    5.60669,
                    -0.0
                ],
                [
                    0.0,
                    0.0,
                    5.05472
                ]
            ],
            [
                [
                    5.62274,
                    0.0,
                    0.0
                ],
                [
                    0.0,
                    5.15799,
                    -0.0
                ],
                [
                    0.0,
                    0.0,
                    5.07449
                ]
            ],
            [
                [
                    5.15776,
                    0.0,
                    -0.0
                ],
                [
                    0.0,
                    5.62304,
                    -0.0
                ],
                [
                    0.0,
                    0.0,
                    5.07394
                ]
            ],
            [
                [
                    5.60642,
                    0.0,
                    -0.0
                ],
                [
                    0.0,
                    5.18148,
                    -0.0
                ],
                [
                    0.0,
                    0.0,
                    5.05452
                ]
            ],
            [
                [
                    5.60527,
                    0.0,
                    0.0
                ],
                [
                    0.0,
                    5.21731,
                    -0.0
                ],
                [
                    0.0,
                    0.0,
                    4.90986
                ]
            ],
            [
                [
                    5.20911,
                    0.0,
                    -0.0
                ],
                [
                    0.0,
                    5.60149,
                    0.0
                ],
                [
                    0.0,
                    0.0,
                    5.02309
                ]
            ],
            [
                [
                    4.19858,
                    0.0,
                    -0.0
                ],
                [
                    0.0,
                    4.23379,
                    0.0
                ],
                [
                    0.0,
                    0.0,
                    3.81482
                ]
            ],
            [
                [
                    4.23382,
                    0.0,
                    -0.0
                ],
                [
                    0.0,
                    4.19855,
                    0.0
                ],
                [
                    0.0,
                    0.0,
                    3.81487
                ]
            ],
            [
                [
                    -2.71505,
                    0.0,
                    0.0
                ],
                [
                    0.0,
                    -2.71517,
                    -0.0
                ],
                [
                    0.0,
                    0.0,
                    -2.53205
                ]
            ],
            [
                [
                    -2.51077,
                    0.0,
                    0.0
                ],
                [
                    0.0,
                    -2.82773,
                    0.0
                ],
                [
                    0.0,
                    0.0,
                    -2.52491
                ]
            ],
            [
                [
                    -3.02341,
                    0.0,
                    -0.0
                ],
                [
                    0.0,
                    -2.41112,
                    -0.0
                ],
                [
                    0.0,
                    0.0,
                    -2.52552
                ]
            ],
            [
                [
                    -2.24682,
                    0.0,
                    -0.0
                ],
                [
                    0.0,
                    -3.12223,
                    0.0
                ],
                [
                    0.0,
                    0.0,
                    -2.48407
                ]
            ],
            [
                [
                    -3.30679,
                    0.0,
                    0.0
                ],
                [
                    0.0,
                    -2.3209,
                    0.0
                ],
                [
                    0.0,
                    0.0,
                    -2.51299
                ]
            ],
            [
                [
                    -3.69824,
                    0.0,
                    -0.0
                ],
                [
                    0.0,
                    -2.13148,
                    0.0
                ],
                [
                    0.0,
                    0.0,
                    -2.16028
                ]
            ],
            [
                [
                    -2.42367,
                    0.0,
                    0.0
                ],
                [
                    0.0,
                    -2.42379,
                    -0.0
                ],
                [
                    0.0,
                    0.0,
                    -3.15285
                ]
            ],
            [
                [
                    -2.3208,
                    0.0,
                    -0.0
                ],
                [
                    0.0,
                    -3.30683,
                    -0.0
                ],
                [
                    0.0,
                    0.0,
                    -2.51334
                ]
            ],
            [
                [
                    -2.13142,
                    0.0,
                    -0.0
                ],
                [
                    0.0,
                    -3.69833,
                    0.0
                ],
                [
                    0.0,
                    0.0,
                    -2.16032
                ]
            ],
            [
                [
                    -3.12212,
                    0.0,
                    -0.0
                ],
                [
                    0.0,
                    -2.24688,
                    -0.0
                ],
                [
                    0.0,
                    0.0,
                    -2.484
                ]
            ],
            [
                [
                    -3.16947,
                    0.0,
                    0.0
                ],
                [
                    0.0,
                    -2.27758,
                    0.0
                ],
                [
                    0.0,
                    0.0,
                    -2.52159
                ]
            ],
            [
                [
                    -2.41096,
                    0.0,
                    0.0
                ],
                [
                    0.0,
                    -3.02345,
                    0.0
                ],
                [
                    0.0,
                    0.0,
                    -2.52569
                ]
            ],
            [
                [
                    -2.37178,
                    0.0,
                    0.0
                ],
                [
                    0.0,
                    -2.9803,
                    0.0
                ],
                [
                    0.0,
                    0.0,
                    -2.51156
                ]
            ],
            [
                [
                    -2.82762,
                    0.0,
                    0.0
                ],
                [
                    0.0,
                    -2.51084,
                    -0.0
                ],
                [
                    0.0,
                    0.0,
                    -2.52483
                ]
            ],
            [
                [
                    -2.87511,
                    0.0,
                    0.0
                ],
                [
                    0.0,
                    -2.55542,
                    -0.0
                ],
                [
                    0.0,
                    0.0,
                    -2.52874
                ]
            ],
            [
                [
                    -2.6662,
                    0.0,
                    -0.0
                ],
                [
                    0.0,
                    -2.66631,
                    0.0
                ],
                [
                    0.0,
                    0.0,
                    -2.52876
                ]
            ],
            [
                [
                    -2.55534,
                    0.0,
                    -0.0
                ],
                [
                    0.0,
                    -2.87525,
                    -0.0
                ],
                [
                    0.0,
                    0.0,
                    -2.52882
                ]
            ],
            [
                [
                    -2.98026,
                    0.0,
                    0.0
                ],
                [
                    0.0,
                    -2.37194,
                    0.0
                ],
                [
                    0.0,
                    0.0,
                    -2.51157
                ]
            ],
            [
                [
                    -2.27743,
                    0.0,
                    -0.0
                ],
                [
                    0.0,
                    -3.16964,
                    0.0
                ],
                [
                    0.0,
                    0.0,
                    -2.5216
                ]
            ]
        ]
    },
    "band_gap": 2.4590000000000005,
    "is_direct": false,
    "formula": "Zr8Sc2O19"
}