{
    "mp_id": "mp-1190151",
    "nelements": 4,
    "nsites": 22,
    "elements": [
        "Li",
        "O",
        "Sb",
        "Sr"
    ],
    "structure": {
        "@module": "pymatgen.core.structure",
        "@class": "Structure",
        "charge": null,
        "lattice": {
            "matrix": [
                [
                    4.87488684,
                    2.81451737,
                    3.73308758
                ],
                [
                    -4.87488684,
                    2.81451737,
                    3.73308758
                ],
                [
                    0.0,
                    -5.62903374,
                    3.73308758
                ]
            ],
            "a": 6.754403941783995,
            "b": 6.754403941783995,
            "c": 6.75440328422938,
            "alpha": 92.39575217536354,
            "beta": 92.39575217536354,
            "gamma": 92.39575249409633,
            "volume": 307.31789513027184
        },
        "sites": [
            {
                "species": [
                    {
                        "element": "Sr",
                        "occu": 1
                    }
                ],
                "abc": [
                    0.89785356,
                    0.60214644,
                    0.25
                ],
                "xyz": [
                    1.441538747782301,
                    2.8145176199999993,
                    6.532903264999999
                ],
                "label": "Sr",
                "properties": {}
            },
            {
                "species": [
                    {
                        "element": "Sr",
                        "occu": 1
                    }
                ],
                "abc": [
                    0.60214644,
                    0.25,
                    0.89785356
                ],
                "xyz": [
                    1.7166740461088494,
                    -2.655667025655452,
                    6.532903265
                ],
                "label": "Sr",
                "properties": {}
            },
            {
                "species": [
                    {
                        "element": "Sr",
                        "occu": 1
                    }
                ],
                "abc": [
                    0.25,
                    0.89785356,
                    0.60214644
                ],
                "xyz": [
                    -3.1582127938911504,
                    -0.15884884434454793,
                    6.532903265
                ],
                "label": "Sr",
                "properties": {}
            },
            {
                "species": [
                    {
                        "element": "Sr",
                        "occu": 1
                    }
                ],
                "abc": [
                    0.39785356,
                    0.75,
                    0.10214644
                ],
                "xyz": [
                    -1.7166740461088497,
                    2.6556680256554515,
                    4.666359475
                ],
                "label": "Sr",
                "properties": {}
            },
            {
                "species": [
                    {
                        "element": "Sr",
                        "occu": 1
                    }
                ],
                "abc": [
                    0.75,
                    0.10214644,
                    0.39785356
                ],
                "xyz": [
                    3.1582127938911504,
                    0.15884984434454807,
                    4.666359475
                ],
                "label": "Sr",
                "properties": {}
            },
            {
                "species": [
                    {
                        "element": "Sr",
                        "occu": 1
                    }
                ],
                "abc": [
                    0.10214644,
                    0.39785356,
                    0.75
                ],
                "xyz": [
                    -1.441538747782301,
                    -2.8145166199999996,
                    4.666359475
                ],
                "label": "Sr",
                "properties": {}
            },
            {
                "species": [
                    {
                        "element": "Li",
                        "occu": 1
                    }
                ],
                "abc": [
                    0.25,
                    0.25,
                    0.25
                ],
                "xyz": [
                    0.0,
                    2.500000000349445e-07,
                    2.799815685
                ],
                "label": "Li",
                "properties": {}
            },
            {
                "species": [
                    {
                        "element": "Li",
                        "occu": 1
                    }
                ],
                "abc": [
                    0.75,
                    0.75,
                    0.75
                ],
                "xyz": [
                    0.0,
                    7.499999998827889e-07,
                    8.399447055
                ],
                "label": "Li",
                "properties": {}
            },
            {
                "species": [
                    {
                        "element": "Sb",
                        "occu": 1
                    }
                ],
                "abc": [
                    0.0,
                    0.0,
                    0.0
                ],
                "xyz": [
                    0.0,
                    0.0,
                    0.0
                ],
                "label": "Sb",
                "properties": {}
            },
            {
                "species": [
                    {
                        "element": "Sb",
                        "occu": 1
                    }
                ],
                "abc": [
                    0.5,
                    0.5,
                    0.5
                ],
                "xyz": [
                    0.0,
                    5.00000000069889e-07,
                    5.59963137
                ],
                "label": "Sb",
                "properties": {}
            },
            {
                "species": [
                    {
                        "element": "O",
                        "occu": 1
                    }
                ],
                "abc": [
                    0.95206212,
                    0.28249621,
                    0.08127187
                ],
                "xyz": [
                    3.2640580431716244,
                    3.017203765720298,
                    4.912109377008917
                ],
                "label": "O",
                "properties": {}
            },
            {
                "species": [
                    {
                        "element": "O",
                        "occu": 1
                    }
                ],
                "abc": [
                    0.28249621,
                    0.08127187,
                    0.95206212
                ],
                "xyz": [
                    0.9809458869536858,
                    -4.335358216244379,
                    4.912109377008916
                ],
                "label": "O",
                "properties": {}
            },
            {
                "species": [
                    {
                        "element": "O",
                        "occu": 1
                    }
                ],
                "abc": [
                    0.08127187,
                    0.95206212,
                    0.28249621
                ],
                "xyz": [
                    -4.24500393012531,
                    1.3181557663542804,
                    4.912109377008916
                ],
                "label": "O",
                "properties": {}
            },
            {
                "species": [
                    {
                        "element": "O",
                        "occu": 1
                    }
                ],
                "abc": [
                    0.45206212,
                    0.58127187,
                    0.78249621
                ],
                "xyz": [
                    -0.6298829098746901,
                    -1.4963611036457185,
                    6.778653167008915
                ],
                "label": "O",
                "properties": {}
            },
            {
                "species": [
                    {
                        "element": "O",
                        "occu": 1
                    }
                ],
                "abc": [
                    0.58127187,
                    0.78249621,
                    0.45206212
                ],
                "xyz": [
                    -0.9809458869536858,
                    1.2936760237556206,
                    6.778653167008916
                ],
                "label": "O",
                "properties": {}
            },
            {
                "species": [
                    {
                        "element": "O",
                        "occu": 1
                    }
                ],
                "abc": [
                    0.78249621,
                    0.45206212,
                    0.58127187
                ],
                "xyz": [
                    1.6108287968283759,
                    0.20268689572029785,
                    6.778653167008915
                ],
                "label": "O",
                "properties": {}
            },
            {
                "species": [
                    {
                        "element": "O",
                        "occu": 1
                    }
                ],
                "abc": [
                    0.04793788,
                    0.71750379,
                    0.91872813
                ],
                "xyz": [
                    -3.2640580431716244,
                    -3.017202765720298,
                    6.287153362991083
                ],
                "label": "O",
                "properties": {}
            },
            {
                "species": [
                    {
                        "element": "O",
                        "occu": 1
                    }
                ],
                "abc": [
                    0.71750379,
                    0.91872813,
                    0.04793788
                ],
                "xyz": [
                    -0.9809458869536853,
                    4.335359216244379,
                    6.287153362991084
                ],
                "label": "O",
                "properties": {}
            },
            {
                "species": [
                    {
                        "element": "O",
                        "occu": 1
                    }
                ],
                "abc": [
                    0.91872813,
                    0.04793788,
                    0.71750379
                ],
                "xyz": [
                    4.24500393012531,
                    -1.3181547663542803,
                    6.287153362991083
                ],
                "label": "O",
                "properties": {}
            },
            {
                "species": [
                    {
                        "element": "O",
                        "occu": 1
                    }
                ],
                "abc": [
                    0.54793788,
                    0.41872813,
                    0.21750379
                ],
                "xyz": [
                    0.6298829098746901,
                    1.4963621036457189,
                    4.420609572991084
                ],
                "label": "O",
                "properties": {}
            },
            {
                "species": [
                    {
                        "element": "O",
                        "occu": 1
                    }
                ],
                "abc": [
                    0.41872813,
                    0.21750379,
                    0.54793788
                ],
                "xyz": [
                    0.9809458869536858,
                    -1.293675023755621,
                    4.420609572991083
                ],
                "label": "O",
                "properties": {}
            },
            {
                "species": [
                    {
                        "element": "O",
                        "occu": 1
                    }
                ],
                "abc": [
                    0.21750379,
                    0.54793788,
                    0.41872813
                ],
                "xyz": [
                    -1.6108287968283759,
                    -0.20268589572029816,
                    4.420609572991084
                ],
                "label": "O",
                "properties": {}
            }
        ]
    },
    "spacegroup": {
        "source": "spglib",
        "symbol": "R-3c",
        "number": 167,
        "point_group": "-3m",
        "crystal_system": "trigonal",
        "hall": "-R 3 2\"c"
    },
    "dielectric": {
        "epsilon_ionic": [
            [
                11.65282163,
                -0.0,
                -0.0
            ],
            [
                -0.0,
                11.65287459,
                -2.13e-06
            ],
            [
                -0.0,
                -2.13e-06,
                9.85048202
            ]
        ],
        "epsilon_ionic_avg": 11.052059413333332,
        "epsilon_ionic_eig": [
            9.850482019997482,
            11.652874590002517,
            11.65282163
        ],
        "epsilon_electronic": [
            [
                3.72622161,
                0.0,
                0.0
            ],
            [
                0.0,
                3.72622075,
                0.0
            ],
            [
                0.0,
                0.0,
                3.62816546
            ]
        ],
        "epsilon_electronic_avg": 3.6935359400000003,
        "epsilon_electronic_eig": [
            3.72622161,
            3.72622075,
            3.62816546
        ]
    },
    "phonon": {
        "lowest_freq": -0.049117304532575436,
        "frequency": [
            -0.049117304532575436,
            -0.030712594696907045,
            -0.0307125911955401,
            3.032783012790509,
            3.0327831296403405,
            3.2321535550107794,
            3.2871743224743257,
            3.2871743261918063,
            3.4594317566716417,
            3.6071230036648583,
            3.7456160122986764,
            3.7456162439349248,
            3.9030849992919157,
            4.177466126371758,
            4.177466336987577,
            4.387693612116902,
            4.387693823781744,
            4.705252773030964,
            4.705252788613557,
            4.72373653306302,
            4.963057163757517,
            5.023800163913134,
            5.023800407155418,
            5.133850651903138,
            5.133850723311564,
            5.408017565562557,
            5.731889343902094,
            5.747095484973353,
            5.74709574012846,
            5.861969451551007,
            5.861969555782242,
            6.029631735375258,
            6.928738705955608,
            7.106911486473329,
            7.418137110666447,
            7.418137786065459,
            7.710949615761851,
            7.710949631609453,
            8.45674715752864,
            8.917874597115542,
            9.482526967643375,
            9.48252748311805,
            10.590104900248827,
            10.590105384890167,
            10.985225264236052,
            10.985225386600472,
            11.738724547113957,
            11.738724651213907,
            11.741498816115609,
            11.741499440567722,
            11.771175575144012,
            11.952896953038076,
            12.297623230385755,
            13.005876392903176,
            16.23503629866628,
            16.23503690082108,
            17.006137294943578,
            17.006137726082276,
            17.137101364203513,
            17.56695231805245,
            17.566952944114703,
            17.79562265213209,
            17.795622858137914,
            17.99067454662516,
            19.89142766596066,
            19.94279484571932
        ]
    },
    "born_effective_charge": {
        "avg_abs_trace": 2.3323369696969696,
        "tensors": [
            [
                [
                    2.50179,
                    -0.0,
                    0.0
                ],
                [
                    -4e-05,
                    2.55211,
                    0.26327
                ],
                [
                    6e-05,
                    0.27128,
                    2.38655
                ]
            ],
            [
                [
                    2.53951,
                    -0.0217,
                    0.22798
                ],
                [
                    -0.02163,
                    2.51433,
                    -0.13166
                ],
                [
                    0.23491,
                    -0.13569,
                    2.38655
                ]
            ],
            [
                [
                    2.53951,
                    0.0217,
                    -0.22798
                ],
                [
                    0.02192,
                    2.51444,
                    -0.13162
                ],
                [
                    -0.23496,
                    -0.13559,
                    2.38655
                ]
            ],
            [
                [
                    2.53953,
                    -0.02184,
                    0.22801
                ],
                [
                    -0.02192,
                    2.51444,
                    -0.13162
                ],
                [
                    0.23496,
                    -0.13559,
                    2.38655
                ]
            ],
            [
                [
                    2.53953,
                    0.02184,
                    -0.22801
                ],
                [
                    0.02163,
                    2.51433,
                    -0.13166
                ],
                [
                    -0.23491,
                    -0.13569,
                    2.38655
                ]
            ],
            [
                [
                    2.50182,
                    -0.0,
                    -0.0
                ],
                [
                    4e-05,
                    2.55211,
                    0.26327
                ],
                [
                    -6e-05,
                    0.27128,
                    2.38655
                ]
            ],
            [
                [
                    0.88694,
                    -0.0,
                    0.0
                ],
                [
                    2e-05,
                    0.88695,
                    -0.0
                ],
                [
                    0.0,
                    -0.0,
                    1.43101
                ]
            ],
            [
                [
                    0.88695,
                    -0.0,
                    0.0
                ],
                [
                    -2e-05,
                    0.88695,
                    -0.0
                ],
                [
                    0.0,
                    -0.0,
                    1.43101
                ]
            ],
            [
                [
                    4.45702,
                    -0.00982,
                    -0.0
                ],
                [
                    0.00982,
                    4.45702,
                    0.0
                ],
                [
                    0.0,
                    -0.0,
                    4.04324
                ]
            ],
            [
                [
                    4.45702,
                    0.00982,
                    0.0
                ],
                [
                    -0.00982,
                    4.45702,
                    0.0
                ],
                [
                    0.0,
                    -0.0,
                    4.04324
                ]
            ],
            [
                [
                    -2.41884,
                    0.04625,
                    0.47259
                ],
                [
                    0.02141,
                    -1.88943,
                    -0.03781
                ],
                [
                    0.49051,
                    -0.03339,
                    -2.10567
                ]
            ],
            [
                [
                    -2.05105,
                    -0.2337,
                    -0.26901
                ],
                [
                    -0.2587,
                    -2.2572,
                    -0.3904
                ],
                [
                    -0.27417,
                    -0.4081,
                    -2.10567
                ]
            ],
            [
                [
                    -1.99249,
                    0.22485,
                    -0.20355
                ],
                [
                    0.19988,
                    -2.31586,
                    0.42824
                ],
                [
                    -0.21634,
                    0.44149,
                    -2.10567
                ]
            ],
            [
                [
                    -1.9925,
                    -0.22478,
                    0.20357
                ],
                [
                    -0.19988,
                    -2.31586,
                    0.42824
                ],
                [
                    0.21634,
                    0.44149,
                    -2.10567
                ]
            ],
            [
                [
                    -2.05107,
                    0.23367,
                    0.26905
                ],
                [
                    0.2587,
                    -2.2572,
                    -0.3904
                ],
                [
                    0.27417,
                    -0.4081,
                    -2.10567
                ]
            ],
            [
                [
                    -2.41886,
                    -0.04631,
                    -0.47258
                ],
                [
                    -0.02141,
                    -1.88943,
                    -0.03781
                ],
                [
                    -0.49051,
                    -0.03339,
                    -2.10567
                ]
            ],
            [
                [
                    -2.41886,
                    0.04631,
                    0.47258
                ],
                [
                    0.02127,
                    -1.88943,
                    -0.03779
                ],
                [
                    0.49054,
                    -0.03345,
                    -2.10563
                ]
            ],
            [
                [
                    -2.05107,
                    -0.23367,
                    -0.26905
                ],
                [
                    -0.25855,
                    -2.25723,
                    -0.39035
                ],
                [
                    -0.27424,
                    -0.4081,
                    -2.10563
                ]
            ],
            [
                [
                    -1.9925,
                    0.22478,
                    -0.20357
                ],
                [
                    0.19987,
                    -2.3157,
                    0.42811
                ],
                [
                    -0.21631,
                    0.44155,
                    -2.10563
                ]
            ],
            [
                [
                    -1.99249,
                    -0.22485,
                    0.20355
                ],
                [
                    -0.19987,
                    -2.3157,
                    0.42811
                ],
                [
                    0.21631,
                    0.44155,
                    -2.10563
                ]
            ],
            [
                [
                    -2.05105,
                    0.2337,
                    0.26901
                ],
                [
                    0.25855,
                    -2.25723,
                    -0.39035
                ],
                [
                    0.27424,
                    -0.4081,
                    -2.10563
                ]
            ],
            [
                [
                    -2.41884,
                    -0.04625,
                    -0.47259
                ],
                [
                    -0.02127,
                    -1.88943,
                    -0.03779
                ],
                [
                    -0.49054,
                    -0.03345,
                    -2.10563
                ]
            ]
        ]
    },
    "band_gap": 3.2923999999999998,
    "is_direct": false,
    "formula": "Sr3LiSbO6"
}