{
    "mp_id": "mp-1190335",
    "nelements": 4,
    "nsites": 22,
    "elements": [
        "As",
        "Ba",
        "Cd",
        "O"
    ],
    "structure": {
        "@module": "pymatgen.core.structure",
        "@class": "Structure",
        "charge": null,
        "lattice": {
            "matrix": [
                [
                    5.83533026,
                    -0.00375313,
                    -0.00238725
                ],
                [
                    -0.98003913,
                    7.26791709,
                    0.00138509
                ],
                [
                    -0.09556473,
                    -1.39156672,
                    7.6090089
                ]
            ],
            "a": 5.835331955272041,
            "b": 7.333696028737457,
            "c": 7.7358003460605635,
            "alpha": 100.16226255958338,
            "beta": 90.72425299968928,
            "gamma": 97.71655611551893,
            "volume": 322.68171371787383
        },
        "sites": [
            {
                "species": [
                    {
                        "element": "Ba",
                        "occu": 1
                    }
                ],
                "abc": [
                    0.6965065,
                    0.2751036,
                    0.93126469
                ],
                "xyz": [
                    3.705737104274439,
                    0.7008991264050624,
                    7.08471962256894
                ],
                "label": "Ba",
                "properties": {}
            },
            {
                "species": [
                    {
                        "element": "Ba",
                        "occu": 1
                    }
                ],
                "abc": [
                    0.3034935,
                    0.7248964,
                    0.06873531
                ],
                "xyz": [
                    1.053989295725562,
                    5.171698113594938,
                    0.5232871174310599
                ],
                "label": "Ba",
                "properties": {}
            },
            {
                "species": [
                    {
                        "element": "Cd",
                        "occu": 1
                    }
                ],
                "abc": [
                    0.3144536,
                    0.83395582,
                    0.60188929
                ],
                "xyz": [
                    0.9601118836659576,
                    5.222372466154767,
                    4.5801853889348045
                ],
                "label": "Cd",
                "properties": {}
            },
            {
                "species": [
                    {
                        "element": "Cd",
                        "occu": 1
                    }
                ],
                "abc": [
                    0.6855464,
                    0.16604418,
                    0.39811071
                ],
                "xyz": [
                    3.7996145163340427,
                    0.650224773845233,
                    3.027821351065195
                ],
                "label": "Cd",
                "properties": {}
            },
            {
                "species": [
                    {
                        "element": "As",
                        "occu": 1
                    }
                ],
                "abc": [
                    0.8169288,
                    0.77748214,
                    0.81667438
                ],
                "xyz": [
                    3.9270411602067328,
                    4.511152804203996,
                    6.213209295281475
                ],
                "label": "As",
                "properties": {}
            },
            {
                "species": [
                    {
                        "element": "As",
                        "occu": 1
                    }
                ],
                "abc": [
                    0.1830712,
                    0.22251786,
                    0.18332562
                ],
                "xyz": [
                    0.8326852397932675,
                    1.3614444357960052,
                    1.3947974447185254
                ],
                "label": "As",
                "properties": {}
            },
            {
                "species": [
                    {
                        "element": "As",
                        "occu": 1
                    }
                ],
                "abc": [
                    0.79024651,
                    0.66890797,
                    0.39836114
                ],
                "xyz": [
                    3.9177241129069347,
                    4.304255663950871,
                    3.0301734414333157
                ],
                "label": "As",
                "properties": {}
            },
            {
                "species": [
                    {
                        "element": "As",
                        "occu": 1
                    }
                ],
                "abc": [
                    0.20975349,
                    0.33109203,
                    0.60163886
                ],
                "xyz": [
                    0.8420022870930656,
                    1.56834157604913,
                    4.577833298566684
                ],
                "label": "As",
                "properties": {}
            },
            {
                "species": [
                    {
                        "element": "O",
                        "occu": 1
                    }
                ],
                "abc": [
                    0.93759586,
                    0.22667499,
                    0.62714984
                ],
                "xyz": [
                    5.189097728387221,
                    0.7712152687492125,
                    4.77006440373869
                ],
                "label": "O",
                "properties": {}
            },
            {
                "species": [
                    {
                        "element": "O",
                        "occu": 1
                    }
                ],
                "abc": [
                    0.06240414,
                    0.77332501,
                    0.37285016
                ],
                "xyz": [
                    -0.42937132838722164,
                    5.101381971250787,
                    2.83794233626131
                ],
                "label": "O",
                "properties": {}
            },
            {
                "species": [
                    {
                        "element": "O",
                        "occu": 1
                    }
                ],
                "abc": [
                    0.78747994,
                    0.64571841,
                    0.97533331
                ],
                "xyz": [
                    3.869168749833445,
                    3.3328309776759713,
                    7.4203343028822015
                ],
                "label": "O",
                "properties": {}
            },
            {
                "species": [
                    {
                        "element": "O",
                        "occu": 1
                    }
                ],
                "abc": [
                    0.21252006,
                    0.35428159,
                    0.02466669
                ],
                "xyz": [
                    0.8905576501665553,
                    2.5397662623240285,
                    0.18767243711779913
                ],
                "label": "O",
                "properties": {}
            },
            {
                "species": [
                    {
                        "element": "O",
                        "occu": 1
                    }
                ],
                "abc": [
                    0.78553508,
                    0.61300974,
                    0.61473724
                ],
                "xyz": [
                    3.9243358919828495,
                    3.596907865679003,
                    4.676514935362483
                ],
                "label": "O",
                "properties": {}
            },
            {
                "species": [
                    {
                        "element": "O",
                        "occu": 1
                    }
                ],
                "abc": [
                    0.21446492,
                    0.38699026,
                    0.38526276
                ],
                "xyz": [
                    0.8353905080171508,
                    2.2756893743209963,
                    2.9314918046375174
                ],
                "label": "O",
                "properties": {}
            },
            {
                "species": [
                    {
                        "element": "O",
                        "occu": 1
                    }
                ],
                "abc": [
                    0.59448183,
                    0.90618249,
                    0.81895275
                ],
                "xyz": [
                    2.502640514061835,
                    5.444200645986646,
                    6.2312547309858815
                ],
                "label": "O",
                "properties": {}
            },
            {
                "species": [
                    {
                        "element": "O",
                        "occu": 1
                    }
                ],
                "abc": [
                    0.40551817,
                    0.09381751,
                    0.18104725
                ],
                "xyz": [
                    2.2570858859381655,
                    0.4283965940133539,
                    1.3767520090141183
                ],
                "label": "O",
                "properties": {}
            },
            {
                "species": [
                    {
                        "element": "O",
                        "occu": 1
                    }
                ],
                "abc": [
                    0.59022291,
                    0.82018111,
                    0.38965973
                ],
                "xyz": [
                    2.6030982984920996,
                    5.416555610561776,
                    2.964651368553349
                ],
                "label": "O",
                "properties": {}
            },
            {
                "species": [
                    {
                        "element": "O",
                        "occu": 1
                    }
                ],
                "abc": [
                    0.40977709,
                    0.17981889,
                    0.61034027
                ],
                "xyz": [
                    2.1566281015079003,
                    0.456041629438224,
                    4.643355371446651
                ],
                "label": "O",
                "properties": {}
            },
            {
                "species": [
                    {
                        "element": "O",
                        "occu": 1
                    }
                ],
                "abc": [
                    0.28787294,
                    0.5459947,
                    0.72232523
                ],
                "xyz": [
                    1.0757086914674157,
                    2.962000035527776,
                    5.4962481308875555
                ],
                "label": "O",
                "properties": {}
            },
            {
                "species": [
                    {
                        "element": "O",
                        "occu": 1
                    }
                ],
                "abc": [
                    0.71212706,
                    0.4540053,
                    0.27767477
                ],
                "xyz": [
                    3.6840177085325845,
                    2.910597204472225,
                    2.1117586091124454
                ],
                "label": "O",
                "properties": {}
            },
            {
                "species": [
                    {
                        "element": "O",
                        "occu": 1
                    }
                ],
                "abc": [
                    0.08418232,
                    0.90348385,
                    0.82765588
                ],
                "xyz": [
                    -0.47331259777515955,
                    5.414391388543021,
                    6.298691399259709
                ],
                "label": "O",
                "properties": {}
            },
            {
                "species": [
                    {
                        "element": "O",
                        "occu": 1
                    }
                ],
                "abc": [
                    0.91581768,
                    0.09651615,
                    0.17234412
                ],
                "xyz": [
                    5.23303899777516,
                    0.4582058514569788,
                    1.3093153407402913
                ],
                "label": "O",
                "properties": {}
            }
        ]
    },
    "spacegroup": {
        "source": "spglib",
        "symbol": "P-1",
        "number": 2,
        "point_group": "-1",
        "crystal_system": "triclinic",
        "hall": "-P 1"
    },
    "dielectric": {
        "epsilon_ionic": [
            [
                8.89125653,
                -0.53746661,
                -0.00210554
            ],
            [
                -0.53746661,
                8.65806898,
                -0.23373372
            ],
            [
                -0.00210554,
                -0.23373372,
                4.96875463
            ]
        ],
        "epsilon_ionic_avg": 7.506026713333334,
        "epsilon_ionic_eig": [
            9.329490699354128,
            8.234918652797482,
            4.953670787848391
        ],
        "epsilon_electronic": [
            [
                3.64253695,
                -0.01293589,
                0.00673755
            ],
            [
                -0.01293637,
                3.48379969,
                0.02005916
            ],
            [
                0.00673801,
                0.02006246,
                3.59572754
            ]
        ],
        "epsilon_electronic_avg": 3.574021393333334,
        "epsilon_electronic_eig": [
            3.4791294519992735,
            3.644151364232494,
            3.5987833637682347
        ]
    },
    "phonon": {
        "lowest_freq": -0.07806986787423678,
        "frequency": [
            -0.07806986787423678,
            -0.04116016181592821,
            -0.033426756668399,
            1.3488321481119847,
            1.5639601576803088,
            1.7935413217291731,
            2.0001986318210285,
            2.182673807772957,
            2.5528213227529455,
            2.6892995818946748,
            2.8376616248029323,
            3.2706702590470034,
            3.4067708954305846,
            3.4429652517313967,
            3.5070571649347144,
            3.5583522853038914,
            3.86156971200013,
            4.0696234894699925,
            4.2773826673251065,
            4.339801064768608,
            4.528071785993769,
            4.564595088453349,
            4.627623170691461,
            4.647151592237603,
            5.152974793712238,
            5.24952218914275,
            6.002841338374862,
            6.189020362116815,
            6.728335190079257,
            7.158415427987789,
            7.765708708041018,
            7.916111409653493,
            8.404142471556263,
            8.427504271922013,
            8.655781577298166,
            8.757306057123774,
            9.213416072824078,
            9.477529309157005,
            10.10660246607042,
            10.109559688776194,
            10.418355318648503,
            10.490792834903992,
            10.677221699813273,
            10.731228517886345,
            11.143206609637856,
            11.699690905072943,
            12.06391776744823,
            12.087008464067065,
            13.056784534507244,
            13.572718283150206,
            15.780350984917957,
            16.115409181214456,
            21.788017516829857,
            21.791694478857128,
            22.549661116052906,
            22.791799725177658,
            24.06796712565937,
            24.27345120025953,
            24.35022423573856,
            24.38270112259558,
            24.77839835789211,
            24.798684762285593,
            25.245840883055582,
            25.268104523396953,
            25.50751917624067,
            25.585304009829322
        ]
    },
    "born_effective_charge": {
        "avg_abs_trace": 2.2033298484848487,
        "tensors": [
            [
                [
                    2.57178,
                    -0.05721,
                    -0.05389
                ],
                [
                    0.05175,
                    2.86367,
                    0.21137
                ],
                [
                    -0.04468,
                    -0.03873,
                    3.06475
                ]
            ],
            [
                [
                    2.57176,
                    -0.05714,
                    -0.05395
                ],
                [
                    0.05166,
                    2.86367,
                    0.21131
                ],
                [
                    -0.04467,
                    -0.03875,
                    3.06454
                ]
            ],
            [
                [
                    2.79766,
                    0.02491,
                    0.03215
                ],
                [
                    0.09274,
                    2.48024,
                    -0.17343
                ],
                [
                    -0.00808,
                    0.00854,
                    2.16148
                ]
            ],
            [
                [
                    2.79767,
                    0.02495,
                    0.03219
                ],
                [
                    0.09276,
                    2.48026,
                    -0.17334
                ],
                [
                    -0.00811,
                    0.00838,
                    2.16147
                ]
            ],
            [
                [
                    3.68234,
                    0.01392,
                    0.04826
                ],
                [
                    -0.16513,
                    2.86602,
                    -0.16974
                ],
                [
                    0.0207,
                    0.24923,
                    3.60113
                ]
            ],
            [
                [
                    3.68235,
                    0.01386,
                    0.0483
                ],
                [
                    -0.16516,
                    2.8659,
                    -0.16974
                ],
                [
                    0.02056,
                    0.24889,
                    3.60127
                ]
            ],
            [
                [
                    3.59109,
                    -0.14183,
                    -0.04976
                ],
                [
                    -0.26784,
                    3.22682,
                    0.30638
                ],
                [
                    0.07114,
                    -0.11618,
                    3.44807
                ]
            ],
            [
                [
                    3.59105,
                    -0.14187,
                    -0.04973
                ],
                [
                    -0.26782,
                    3.22683,
                    0.30626
                ],
                [
                    0.07127,
                    -0.11617,
                    3.44807
                ]
            ],
            [
                [
                    -2.29546,
                    -0.46586,
                    0.03627
                ],
                [
                    -0.35096,
                    -1.22087,
                    0.02501
                ],
                [
                    0.09752,
                    0.03112,
                    -1.51541
                ]
            ],
            [
                [
                    -2.29557,
                    -0.46597,
                    0.03636
                ],
                [
                    -0.35069,
                    -1.22046,
                    0.02492
                ],
                [
                    0.09813,
                    0.03191,
                    -1.51569
                ]
            ],
            [
                [
                    -1.54718,
                    -0.03581,
                    0.01249
                ],
                [
                    -0.04702,
                    -1.89727,
                    0.4087
                ],
                [
                    0.03476,
                    0.59257,
                    -1.67882
                ]
            ],
            [
                [
                    -1.54716,
                    -0.03562,
                    0.0123
                ],
                [
                    -0.04704,
                    -1.89667,
                    0.40828
                ],
                [
                    0.03471,
                    0.5936,
                    -1.67951
                ]
            ],
            [
                [
                    -1.10512,
                    0.03034,
                    0.01035
                ],
                [
                    0.0484,
                    -1.11943,
                    -0.07192
                ],
                [
                    -0.01817,
                    -0.14195,
                    -3.01209
                ]
            ],
            [
                [
                    -1.10506,
                    0.03046,
                    0.01028
                ],
                [
                    0.04853,
                    -1.11926,
                    -0.07207
                ],
                [
                    -0.01813,
                    -0.14126,
                    -3.01247
                ]
            ],
            [
                [
                    -2.19887,
                    0.35102,
                    -0.12518
                ],
                [
                    0.32154,
                    -1.82233,
                    -0.08098
                ],
                [
                    -0.1005,
                    -0.12131,
                    -1.41579
                ]
            ],
            [
                [
                    -2.19869,
                    0.35099,
                    -0.12523
                ],
                [
                    0.32115,
                    -1.82192,
                    -0.08088
                ],
                [
                    -0.10169,
                    -0.12064,
                    -1.41565
                ]
            ],
            [
                [
                    -2.17688,
                    0.59133,
                    0.07741
                ],
                [
                    0.5367,
                    -1.91483,
                    -0.00859
                ],
                [
                    -0.01722,
                    0.05738,
                    -1.38233
                ]
            ],
            [
                [
                    -2.17691,
                    0.59142,
                    0.07743
                ],
                [
                    0.53721,
                    -1.91521,
                    -0.00851
                ],
                [
                    -0.01665,
                    0.05686,
                    -1.38201
                ]
            ],
            [
                [
                    -1.16717,
                    -0.03198,
                    -0.06127
                ],
                [
                    -0.04484,
                    -2.15405,
                    -0.45862
                ],
                [
                    -0.087,
                    -0.52347,
                    -1.75323
                ]
            ],
            [
                [
                    -1.16718,
                    -0.03181,
                    -0.06111
                ],
                [
                    -0.04478,
                    -2.1534,
                    -0.45817
                ],
                [
                    -0.08685,
                    -0.52291,
                    -1.75327
                ]
            ],
            [
                [
                    -2.15223,
                    -0.27906,
                    0.07318
                ],
                [
                    -0.17577,
                    -1.30902,
                    0.01175
                ],
                [
                    0.05108,
                    0.0011,
                    -1.51735
                ]
            ],
            [
                [
                    -2.15222,
                    -0.27905,
                    0.07315
                ],
                [
                    -0.17539,
                    -1.30868,
                    0.012
                ],
                [
                    0.05188,
                    0.00179,
                    -1.51716
                ]
            ]
        ]
    },
    "band_gap": 2.577,
    "is_direct": false,
    "formula": "BaCdAs2O7"
}