{
    "mp_id": "mp-18483",
    "nelements": 3,
    "nsites": 30,
    "elements": [
        "O",
        "Rb",
        "Si"
    ],
    "structure": {
        "@module": "pymatgen.core.structure",
        "@class": "Structure",
        "charge": null,
        "lattice": {
            "matrix": [
                [
                    6.71676018,
                    0.0,
                    0.00038762
                ],
                [
                    0.0,
                    9.1717312,
                    0.0
                ],
                [
                    -6.5197695,
                    0.0,
                    9.20658319
                ]
            ],
            "a": 6.716760191184652,
            "b": 9.1717312,
            "c": 11.281337171076876,
            "alpha": 90.0,
            "beta": 125.30144054320948,
            "gamma": 90.0,
            "volume": 567.1884656051328
        },
        "sites": [
            {
                "species": [
                    {
                        "element": "Rb",
                        "occu": 1
                    }
                ],
                "abc": [
                    0.47662935,
                    0.64758388,
                    0.59047683
                ],
                "xyz": [
                    -0.6483677879914018,
                    5.939465276813056,
                    5.4364588082311345
                ],
                "label": "Rb",
                "properties": {}
            },
            {
                "species": [
                    {
                        "element": "Rb",
                        "occu": 1
                    }
                ],
                "abc": [
                    0.47662935,
                    0.85241612,
                    0.09047683
                ],
                "xyz": [
                    2.6115169620085976,
                    7.818131523186944,
                    0.8331672132311346
                ],
                "label": "Rb",
                "properties": {}
            },
            {
                "species": [
                    {
                        "element": "Rb",
                        "occu": 1
                    }
                ],
                "abc": [
                    0.52337065,
                    0.35241612,
                    0.40952317
                ],
                "xyz": [
                    0.8453584679914021,
                    3.232265923186944,
                    3.770512001768865
                ],
                "label": "Rb",
                "properties": {}
            },
            {
                "species": [
                    {
                        "element": "Rb",
                        "occu": 1
                    }
                ],
                "abc": [
                    0.29243846,
                    0.02676271,
                    0.5443821
                ],
                "xyz": [
                    -1.5850068086974267,
                    0.245460382303552,
                    5.012012445792764
                ],
                "label": "Rb",
                "properties": {}
            },
            {
                "species": [
                    {
                        "element": "Rb",
                        "occu": 1
                    }
                ],
                "abc": [
                    0.70756154,
                    0.52676271,
                    0.9556179
                ],
                "xyz": [
                    -1.4778872613025724,
                    4.831325982303552,
                    8.798249959207237
                ],
                "label": "Rb",
                "properties": {}
            },
            {
                "species": [
                    {
                        "element": "Rb",
                        "occu": 1
                    }
                ],
                "abc": [
                    0.70756154,
                    0.97323729,
                    0.4556179
                ],
                "xyz": [
                    1.781997488697427,
                    8.926270817696448,
                    4.194958364207237
                ],
                "label": "Rb",
                "properties": {}
            },
            {
                "species": [
                    {
                        "element": "Rb",
                        "occu": 1
                    }
                ],
                "abc": [
                    0.29243846,
                    0.47323729,
                    0.0443821
                ],
                "xyz": [
                    1.6748779413025727,
                    4.340405217696448,
                    0.40872085079276416
                ],
                "label": "Rb",
                "properties": {}
            },
            {
                "species": [
                    {
                        "element": "Rb",
                        "occu": 1
                    }
                ],
                "abc": [
                    0.10742273,
                    0.72099236,
                    0.72383739
                ],
                "xyz": [
                    -3.997720222990714,
                    6.612748123173632,
                    6.664110786266077
                ],
                "label": "Rb",
                "properties": {}
            },
            {
                "species": [
                    {
                        "element": "Rb",
                        "occu": 1
                    }
                ],
                "abc": [
                    0.89257727,
                    0.22099236,
                    0.77616261
                ],
                "xyz": [
                    0.9348261529907136,
                    2.026882523173632,
                    7.146151618733923
                ],
                "label": "Rb",
                "properties": {}
            },
            {
                "species": [
                    {
                        "element": "Rb",
                        "occu": 1
                    }
                ],
                "abc": [
                    0.89257727,
                    0.27900764,
                    0.27616261
                ],
                "xyz": [
                    4.194710902990714,
                    2.558983076826368,
                    2.542860023733923
                ],
                "label": "Rb",
                "properties": {}
            },
            {
                "species": [
                    {
                        "element": "Rb",
                        "occu": 1
                    }
                ],
                "abc": [
                    0.10742273,
                    0.77900764,
                    0.22383739
                ],
                "xyz": [
                    -0.7378354729907136,
                    7.144848676826368,
                    2.0608191912660767
                ],
                "label": "Rb",
                "properties": {}
            },
            {
                "species": [
                    {
                        "element": "Rb",
                        "occu": 1
                    }
                ],
                "abc": [
                    0.52337065,
                    0.14758388,
                    0.90952317
                ],
                "xyz": [
                    -2.4145262820085978,
                    1.353599676813056,
                    8.373803596768866
                ],
                "label": "Rb",
                "properties": {}
            },
            {
                "species": [
                    {
                        "element": "Si",
                        "occu": 1
                    }
                ],
                "abc": [
                    0.16861096,
                    0.36701285,
                    0.62342139
                ],
                "xyz": [
                    -2.932044382130032,
                    3.36614320714592,
                    5.739646246440748
                ],
                "label": "Si",
                "properties": {}
            },
            {
                "species": [
                    {
                        "element": "Si",
                        "occu": 1
                    }
                ],
                "abc": [
                    0.16861096,
                    0.13298715,
                    0.12342139
                ],
                "xyz": [
                    0.32784036786996773,
                    1.21972239285408,
                    1.1363546514407494
                ],
                "label": "Si",
                "properties": {}
            },
            {
                "species": [
                    {
                        "element": "Si",
                        "occu": 1
                    }
                ],
                "abc": [
                    0.83138904,
                    0.63298715,
                    0.37657861
                ],
                "xyz": [
                    3.1290350621300322,
                    5.805587992854081,
                    3.4673245635592504
                ],
                "label": "Si",
                "properties": {}
            },
            {
                "species": [
                    {
                        "element": "Si",
                        "occu": 1
                    }
                ],
                "abc": [
                    0.83138904,
                    0.86701285,
                    0.87657861
                ],
                "xyz": [
                    -0.13084968786996853,
                    7.952008807145919,
                    8.07061615855925
                ],
                "label": "Si",
                "properties": {}
            },
            {
                "species": [
                    {
                        "element": "O",
                        "occu": 1
                    }
                ],
                "abc": [
                    0.00516853,
                    0.72096715,
                    0.93518085
                ],
                "xyz": [
                    -6.0624478063209395,
                    6.61251690383008,
                    8.60982229664551
                ],
                "label": "O",
                "properties": {}
            },
            {
                "species": [
                    {
                        "element": "O",
                        "occu": 1
                    }
                ],
                "abc": [
                    0.0,
                    0.0,
                    0.0
                ],
                "xyz": [
                    0.0,
                    0.0,
                    0.0
                ],
                "label": "O",
                "properties": {}
            },
            {
                "species": [
                    {
                        "element": "O",
                        "occu": 1
                    }
                ],
                "abc": [
                    0.0,
                    0.5,
                    0.5
                ],
                "xyz": [
                    -3.25988475,
                    4.5858656,
                    4.603291595
                ],
                "label": "O",
                "properties": {}
            },
            {
                "species": [
                    {
                        "element": "O",
                        "occu": 1
                    }
                ],
                "abc": [
                    0.23374275,
                    0.07902803,
                    0.28075497
                ],
                "xyz": [
                    -0.26046369481571996,
                    0.724823848425536,
                    2.5848845906757094
                ],
                "label": "O",
                "properties": {}
            },
            {
                "species": [
                    {
                        "element": "O",
                        "occu": 1
                    }
                ],
                "abc": [
                    0.99483147,
                    0.22096715,
                    0.56481915
                ],
                "xyz": [
                    2.9995537363209395,
                    2.02665130383008,
                    5.200440108354491
                ],
                "label": "O",
                "properties": {}
            },
            {
                "species": [
                    {
                        "element": "O",
                        "occu": 1
                    }
                ],
                "abc": [
                    0.99483147,
                    0.27903285,
                    0.06481915
                ],
                "xyz": [
                    6.259438486320939,
                    2.55921429616992,
                    0.5971485133544899
                ],
                "label": "O",
                "properties": {}
            },
            {
                "species": [
                    {
                        "element": "O",
                        "occu": 1
                    }
                ],
                "abc": [
                    0.00516853,
                    0.77903285,
                    0.43518085
                ],
                "xyz": [
                    -2.8025630563209396,
                    7.14507989616992,
                    4.00653070164551
                ],
                "label": "O",
                "properties": {}
            },
            {
                "species": [
                    {
                        "element": "O",
                        "occu": 1
                    }
                ],
                "abc": [
                    0.41429486,
                    0.34290729,
                    0.62637402
                ],
                "xyz": [
                    -1.301095012761715,
                    3.1450534904004477,
                    5.766925112158357
                ],
                "label": "O",
                "properties": {}
            },
            {
                "species": [
                    {
                        "element": "O",
                        "occu": 1
                    }
                ],
                "abc": [
                    0.58570514,
                    0.84290729,
                    0.87362598
                ],
                "xyz": [
                    -1.7617990572382851,
                    7.730919090400448,
                    8.043337292841642
                ],
                "label": "O",
                "properties": {}
            },
            {
                "species": [
                    {
                        "element": "O",
                        "occu": 1
                    }
                ],
                "abc": [
                    0.58570514,
                    0.65709271,
                    0.37362598
                ],
                "xyz": [
                    1.4980856927617143,
                    6.026677709599552,
                    3.4400456978416436
                ],
                "label": "O",
                "properties": {}
            },
            {
                "species": [
                    {
                        "element": "O",
                        "occu": 1
                    }
                ],
                "abc": [
                    0.41429486,
                    0.15709271,
                    0.12637402
                ],
                "xyz": [
                    1.9587897372382845,
                    1.4408121095995519,
                    1.163633517158357
                ],
                "label": "O",
                "properties": {}
            },
            {
                "species": [
                    {
                        "element": "O",
                        "occu": 1
                    }
                ],
                "abc": [
                    0.23374275,
                    0.42097197,
                    0.78075497
                ],
                "xyz": [
                    -3.5203484448157205,
                    3.8610417515744637,
                    7.18817618567571
                ],
                "label": "O",
                "properties": {}
            },
            {
                "species": [
                    {
                        "element": "O",
                        "occu": 1
                    }
                ],
                "abc": [
                    0.76625725,
                    0.92097197,
                    0.71924503
                ],
                "xyz": [
                    0.45745437481572004,
                    8.446907351574463,
                    6.62208621932429
                ],
                "label": "O",
                "properties": {}
            },
            {
                "species": [
                    {
                        "element": "O",
                        "occu": 1
                    }
                ],
                "abc": [
                    0.76625725,
                    0.57902803,
                    0.21924503
                ],
                "xyz": [
                    3.71733912481572,
                    5.310689448425536,
                    2.0187946243242907
                ],
                "label": "O",
                "properties": {}
            }
        ]
    },
    "spacegroup": {
        "source": "spglib",
        "symbol": "P2_1/c",
        "number": 14,
        "point_group": "2/m",
        "crystal_system": "monoclinic",
        "hall": "-P 2ybc"
    },
    "dielectric": {
        "epsilon_ionic": [
            [
                4.8545796,
                -2e-08,
                -0.81417278
            ],
            [
                -2e-08,
                4.85618066,
                0.0
            ],
            [
                -0.81417278,
                0.0,
                7.14999958
            ]
        ],
        "epsilon_ionic_avg": 5.620253280000001,
        "epsilon_ionic_eig": [
            7.409455371576116,
            4.5951238084238835,
            4.856180660000002
        ],
        "epsilon_electronic": [
            [
                2.75722689,
                0.0,
                0.00814697
            ],
            [
                0.0,
                2.7657754,
                0.0
            ],
            [
                0.0081475,
                0.0,
                2.75728511
            ]
        ],
        "epsilon_electronic_avg": 2.7600957999999998,
        "epsilon_electronic_eig": [
            2.749108712999587,
            2.7654032870004133,
            2.7657754
        ]
    },
    "phonon": {
        "lowest_freq": -0.08588873730487073,
        "frequency": [
            -0.08588873730487073,
            -0.023768749589089953,
            -0.020114592377252695,
            1.1452807966632466,
            1.4501708159386764,
            1.568813516370712,
            1.6518906125128892,
            1.742626502763546,
            1.7553068283195488,
            1.8429898691112463,
            1.864554004902733,
            2.061548395739503,
            2.173547463774277,
            2.177482475412005,
            2.1902534676519934,
            2.2857086509072233,
            2.3230283000172682,
            2.3468406688477845,
            2.3981597625725417,
            2.4430186795770785,
            2.4989574907427365,
            2.591867010400369,
            2.6042704874300298,
            2.652587177176504,
            2.728792855143654,
            2.794825667911614,
            2.830591204644064,
            2.8781017421375585,
            2.9410067107394777,
            3.0516680546054658,
            3.1215653302933126,
            3.1997555609568824,
            3.201654723391006,
            3.38016803845952,
            3.3976216952150766,
            3.4082899891587797,
            3.488329592964619,
            3.7672245750798443,
            3.8259525566373687,
            3.9295993851605706,
            3.974731591708663,
            4.0518159113262495,
            4.085163954755427,
            4.373174262291645,
            4.577394377116054,
            4.608966823080521,
            4.616138654325081,
            4.801400843078293,
            4.864548654942129,
            4.960908952163997,
            5.4947144507172245,
            5.506163261205314,
            5.6435016312988395,
            5.780979092493621,
            8.088704597811164,
            8.312381373142442,
            8.374964495097869,
            8.752930530384504,
            8.908176837205156,
            9.127072338850985,
            10.053928849188349,
            10.079070925751877,
            10.309598053104724,
            10.451988239807113,
            12.89593734275266,
            12.969143537674364,
            13.343549851684886,
            13.402985219347082,
            13.51689487205453,
            13.614384989668382,
            13.768659361803618,
            13.973518796290342,
            14.237345300614882,
            14.314235906434634,
            17.272215980326255,
            17.603535251437513,
            23.324747434623436,
            23.330465025378665,
            25.0600066821518,
            25.154534304056444,
            26.41286823007359,
            26.455506338821106,
            26.513422681823975,
            26.569218555044593,
            26.686077972910788,
            26.7549136116419,
            26.85545842589472,
            27.49078155556263,
            27.504929516035197,
            27.66676779256058
        ]
    },
    "born_effective_charge": {
        "avg_abs_trace": 1.7046346666666665,
        "tensors": [
            [
                [
                    1.29813,
                    0.10494,
                    0.02558
                ],
                [
                    0.106,
                    1.22918,
                    0.06205
                ],
                [
                    0.04586,
                    0.05649,
                    1.13304
                ]
            ],
            [
                [
                    1.29813,
                    -0.10494,
                    0.02558
                ],
                [
                    -0.10608,
                    1.22914,
                    -0.0621
                ],
                [
                    0.04586,
                    -0.05649,
                    1.13304
                ]
            ],
            [
                [
                    1.29805,
                    0.10491,
                    0.0256
                ],
                [
                    0.10608,
                    1.22914,
                    0.0621
                ],
                [
                    0.04588,
                    0.05644,
                    1.133
                ]
            ],
            [
                [
                    1.14994,
                    -0.03766,
                    0.04179
                ],
                [
                    -0.0496,
                    1.3456,
                    0.00416
                ],
                [
                    0.0392,
                    -0.00229,
                    1.19527
                ]
            ],
            [
                [
                    1.14999,
                    0.03763,
                    0.04184
                ],
                [
                    0.0496,
                    1.3456,
                    -0.00416
                ],
                [
                    0.03916,
                    0.00231,
                    1.19524
                ]
            ],
            [
                [
                    1.14999,
                    -0.03763,
                    0.04184
                ],
                [
                    -0.04972,
                    1.34562,
                    0.00421
                ],
                [
                    0.03916,
                    -0.00231,
                    1.19524
                ]
            ],
            [
                [
                    1.14994,
                    0.03766,
                    0.04179
                ],
                [
                    0.04972,
                    1.34562,
                    -0.00421
                ],
                [
                    0.0392,
                    0.00229,
                    1.19527
                ]
            ],
            [
                [
                    1.23626,
                    -0.10252,
                    -0.08559
                ],
                [
                    -0.1138,
                    1.1549,
                    0.07586
                ],
                [
                    -0.11448,
                    0.07924,
                    1.20831
                ]
            ],
            [
                [
                    1.23629,
                    0.1025,
                    -0.08562
                ],
                [
                    0.1138,
                    1.1549,
                    -0.07586
                ],
                [
                    -0.11449,
                    -0.07932,
                    1.20833
                ]
            ],
            [
                [
                    1.23629,
                    -0.1025,
                    -0.08562
                ],
                [
                    -0.1138,
                    1.15485,
                    0.07587
                ],
                [
                    -0.11449,
                    0.07932,
                    1.20833
                ]
            ],
            [
                [
                    1.23626,
                    0.10252,
                    -0.08559
                ],
                [
                    0.1138,
                    1.15485,
                    -0.07587
                ],
                [
                    -0.11448,
                    -0.07924,
                    1.20831
                ]
            ],
            [
                [
                    1.29805,
                    -0.10491,
                    0.0256
                ],
                [
                    -0.106,
                    1.22918,
                    -0.06205
                ],
                [
                    0.04588,
                    -0.05644,
                    1.133
                ]
            ],
            [
                [
                    2.62159,
                    -0.0775,
                    0.05916
                ],
                [
                    -0.04973,
                    2.7803,
                    -0.14283
                ],
                [
                    0.04821,
                    -0.14461,
                    2.82468
                ]
            ],
            [
                [
                    2.62159,
                    0.0775,
                    0.05916
                ],
                [
                    0.04967,
                    2.78035,
                    0.14282
                ],
                [
                    0.04821,
                    0.14461,
                    2.82468
                ]
            ],
            [
                [
                    2.62149,
                    -0.07749,
                    0.05916
                ],
                [
                    -0.04967,
                    2.78035,
                    -0.14282
                ],
                [
                    0.04822,
                    -0.14462,
                    2.82472
                ]
            ],
            [
                [
                    2.62149,
                    0.07749,
                    0.05916
                ],
                [
                    0.04973,
                    2.7803,
                    0.14283
                ],
                [
                    0.04822,
                    0.14462,
                    2.82472
                ]
            ],
            [
                [
                    -1.79418,
                    0.25647,
                    -0.12349
                ],
                [
                    0.3355,
                    -2.05249,
                    0.2862
                ],
                [
                    -0.10123,
                    0.19273,
                    -1.60401
                ]
            ],
            [
                [
                    -1.21451,
                    -0.33145,
                    -0.34669
                ],
                [
                    -0.2993,
                    -2.44672,
                    -1.05311
                ],
                [
                    -0.37199,
                    -1.02549,
                    -2.21202
                ]
            ],
            [
                [
                    -1.21451,
                    0.33145,
                    -0.34669
                ],
                [
                    0.2993,
                    -2.44672,
                    1.05311
                ],
                [
                    -0.37199,
                    1.02549,
                    -2.21202
                ]
            ],
            [
                [
                    -1.58025,
                    -0.06989,
                    0.22606
                ],
                [
                    -0.02095,
                    -1.64874,
                    0.2069
                ],
                [
                    0.30585,
                    0.25075,
                    -2.18367
                ]
            ],
            [
                [
                    -1.79427,
                    -0.25662,
                    -0.1235
                ],
                [
                    -0.3355,
                    -2.05249,
                    -0.2862
                ],
                [
                    -0.10124,
                    -0.19277,
                    -1.60407
                ]
            ],
            [
                [
                    -1.79427,
                    0.25662,
                    -0.1235
                ],
                [
                    0.33557,
                    -2.05264,
                    0.28626
                ],
                [
                    -0.10124,
                    0.19277,
                    -1.60407
                ]
            ],
            [
                [
                    -1.79418,
                    -0.25647,
                    -0.12349
                ],
                [
                    -0.33557,
                    -2.05264,
                    -0.28626
                ],
                [
                    -0.10123,
                    -0.19273,
                    -1.60401
                ]
            ],
            [
                [
                    -2.32454,
                    0.12058,
                    0.02997
                ],
                [
                    0.15619,
                    -1.58536,
                    0.02406
                ],
                [
                    -0.03737,
                    0.01753,
                    -1.46756
                ]
            ],
            [
                [
                    -2.32395,
                    -0.12049,
                    0.03
                ],
                [
                    -0.15619,
                    -1.58536,
                    -0.02406
                ],
                [
                    -0.03737,
                    -0.01757,
                    -1.46758
                ]
            ],
            [
                [
                    -2.32395,
                    0.12049,
                    0.03
                ],
                [
                    0.15596,
                    -1.58526,
                    0.02411
                ],
                [
                    -0.03737,
                    0.01757,
                    -1.46758
                ]
            ],
            [
                [
                    -2.32454,
                    -0.12058,
                    0.02997
                ],
                [
                    -0.15596,
                    -1.58526,
                    -0.02411
                ],
                [
                    -0.03737,
                    -0.01753,
                    -1.46756
                ]
            ],
            [
                [
                    -1.58025,
                    0.06989,
                    0.22606
                ],
                [
                    0.02096,
                    -1.64873,
                    -0.2069
                ],
                [
                    0.30585,
                    -0.25075,
                    -2.18367
                ]
            ],
            [
                [
                    -1.58005,
                    -0.0698,
                    0.22573
                ],
                [
                    -0.02096,
                    -1.64873,
                    0.2069
                ],
                [
                    0.3058,
                    0.25078,
                    -2.18369
                ]
            ],
            [
                [
                    -1.58005,
                    0.0698,
                    0.22573
                ],
                [
                    0.02095,
                    -1.64874,
                    -0.2069
                ],
                [
                    0.3058,
                    -0.25078,
                    -2.18369
                ]
            ]
        ]
    },
    "band_gap": 3.3163,
    "is_direct": true,
    "formula": "Rb6Si2O7"
}