{
    "mp_id": "mp-10417",
    "nelements": 3,
    "nsites": 8,
    "elements": [
        "K",
        "O",
        "Sb"
    ],
    "structure": {
        "@module": "pymatgen.core.structure",
        "@class": "Structure",
        "charge": null,
        "lattice": {
            "matrix": [
                [
                    3.92791364,
                    -4.17033177,
                    -0.00015351
                ],
                [
                    3.92791364,
                    4.17033177,
                    -0.00015351
                ],
                [
                    -3.18511438,
                    0.0,
                    4.61924242
                ]
            ],
            "a": 5.728889304109018,
            "b": 5.728889304109018,
            "c": 5.61091384254029,
            "alpha": 112.90666542631872,
            "beta": 112.90666542631872,
            "gamma": 93.42923395112912,
            "volume": 151.32879858695037
        },
        "sites": [
            {
                "species": [
                    {
                        "element": "K",
                        "occu": 1
                    }
                ],
                "abc": [
                    0.63609763,
                    0.36390237,
                    0.75
                ],
                "xyz": [
                    1.539077855,
                    -1.1351445404214102,
                    3.464278305
                ],
                "label": "K",
                "properties": {}
            },
            {
                "species": [
                    {
                        "element": "K",
                        "occu": 1
                    }
                ],
                "abc": [
                    0.36390237,
                    0.63609763,
                    0.25
                ],
                "xyz": [
                    3.131635045,
                    1.1351445404214102,
                    1.154657095
                ],
                "label": "K",
                "properties": {}
            },
            {
                "species": [
                    {
                        "element": "Sb",
                        "occu": 1
                    }
                ],
                "abc": [
                    0.90221521,
                    0.09778479,
                    0.25
                ],
                "xyz": [
                    3.1316350450000003,
                    -3.3547417372804436,
                    1.154657095
                ],
                "label": "Sb",
                "properties": {}
            },
            {
                "species": [
                    {
                        "element": "Sb",
                        "occu": 1
                    }
                ],
                "abc": [
                    0.09778479,
                    0.90221521,
                    0.75
                ],
                "xyz": [
                    1.5390778550000004,
                    3.3547417372804436,
                    3.464278305
                ],
                "label": "Sb",
                "properties": {}
            },
            {
                "species": [
                    {
                        "element": "O",
                        "occu": 1
                    }
                ],
                "abc": [
                    0.13023092,
                    0.23465444,
                    0.71680425
                ],
                "xyz": [
                    -0.8498653417398048,
                    0.4354807229912303,
                    3.311036584884672
                ],
                "label": "O",
                "properties": {}
            },
            {
                "species": [
                    {
                        "element": "O",
                        "occu": 1
                    }
                ],
                "abc": [
                    0.76534556,
                    0.86976908,
                    0.78319575
                ],
                "xyz": [
                    3.9280210517398038,
                    0.43548072299123053,
                    3.6175200251153283
                ],
                "label": "O",
                "properties": {}
            },
            {
                "species": [
                    {
                        "element": "O",
                        "occu": 1
                    }
                ],
                "abc": [
                    0.23465444,
                    0.13023092,
                    0.21680425
                ],
                "xyz": [
                    0.7426918482601952,
                    -0.4354807229912303,
                    1.0014153748846712
                ],
                "label": "O",
                "properties": {}
            },
            {
                "species": [
                    {
                        "element": "O",
                        "occu": 1
                    }
                ],
                "abc": [
                    0.86976908,
                    0.76534556,
                    0.28319575
                ],
                "xyz": [
                    5.520578241739804,
                    -0.43548072299123053,
                    1.3078988151153286
                ],
                "label": "O",
                "properties": {}
            }
        ]
    },
    "spacegroup": {
        "source": "spglib",
        "symbol": "C2/c",
        "number": 15,
        "point_group": "2/m",
        "crystal_system": "monoclinic",
        "hall": "-C 2yc"
    },
    "dielectric": {
        "epsilon_ionic": [
            [
                5.28043199,
                -3e-08,
                -3.71020634
            ],
            [
                -3e-08,
                3.78557585,
                2e-08
            ],
            [
                -3.71020634,
                2e-08,
                9.45181552
            ]
        ],
        "epsilon_ionic_avg": 6.17260778666667,
        "epsilon_ionic_eig": [
            11.622382819479634,
            3.1098646905203724,
            3.7855758500000003
        ],
        "epsilon_electronic": [
            [
                3.73433188,
                0.0,
                -0.49347652
            ],
            [
                0.0,
                3.47050327,
                0.0
            ],
            [
                -0.49348027,
                0.0,
                4.27494721
            ]
        ],
        "epsilon_electronic_avg": 3.8265941199999998,
        "epsilon_electronic_eig": [
            3.4419787590143294,
            4.56730033098567,
            3.47050327
        ]
    },
    "phonon": {
        "lowest_freq": -0.20316060971339392,
        "frequency": [
            -0.20316060971339392,
            -0.06970857281727687,
            -0.034311640298894,
            1.4061647322560302,
            3.149358002629937,
            3.3335786651382104,
            3.500700494570457,
            3.6970632444833624,
            3.6992239802509475,
            4.597920053590056,
            4.90072949080549,
            5.073207704519303,
            5.082982011120549,
            6.290185230274827,
            6.505368561101636,
            8.575205669375972,
            9.203886973349896,
            11.940505226979855,
            12.290487062837228,
            12.465064794703137,
            15.646868243050923,
            16.698891020956903,
            17.710344783455646,
            17.839377990600713
        ]
    },
    "born_effective_charge": {
        "avg_abs_trace": 1.9773920833333334,
        "tensors": [
            [
                [
                    1.27037,
                    -3e-05,
                    0.12272
                ],
                [
                    0.0,
                    1.22479,
                    0.0
                ],
                [
                    0.14829,
                    6e-05,
                    1.28789
                ]
            ],
            [
                [
                    1.27037,
                    3e-05,
                    0.12272
                ],
                [
                    0.0,
                    1.22488,
                    0.0
                ],
                [
                    0.14829,
                    -6e-05,
                    1.28789
                ]
            ],
            [
                [
                    2.35488,
                    -0.00034,
                    -1.24345
                ],
                [
                    0.0,
                    1.85796,
                    0.0
                ],
                [
                    -1.29305,
                    -6e-05,
                    3.86843
                ]
            ],
            [
                [
                    2.35488,
                    0.00034,
                    -1.24345
                ],
                [
                    0.0,
                    1.85792,
                    0.0
                ],
                [
                    -1.29305,
                    6e-05,
                    3.86843
                ]
            ],
            [
                [
                    -1.81255,
                    -1.01406,
                    0.56038
                ],
                [
                    -0.43843,
                    -1.54144,
                    0.23166
                ],
                [
                    0.57225,
                    0.82574,
                    -2.57813
                ]
            ],
            [
                [
                    -1.81271,
                    1.01491,
                    0.56035
                ],
                [
                    0.43843,
                    -1.54144,
                    -0.23166
                ],
                [
                    0.57251,
                    -0.82657,
                    -2.5782
                ]
            ],
            [
                [
                    -1.81255,
                    1.01406,
                    0.56038
                ],
                [
                    0.43824,
                    -1.54133,
                    -0.23197
                ],
                [
                    0.57225,
                    -0.82574,
                    -2.57813
                ]
            ],
            [
                [
                    -1.81271,
                    -1.01491,
                    0.56035
                ],
                [
                    -0.43824,
                    -1.54133,
                    0.23197
                ],
                [
                    0.57251,
                    0.82657,
                    -2.5782
                ]
            ]
        ]
    },
    "band_gap": 1.8527999999999998,
    "is_direct": true,
    "formula": "KSbO2"
}