{
    "mp_id": "mp-19449",
    "nelements": 4,
    "nsites": 14,
    "elements": [
        "Cd",
        "Na",
        "O",
        "V"
    ],
    "structure": {
        "@module": "pymatgen.core.structure",
        "@class": "Structure",
        "charge": null,
        "lattice": {
            "matrix": [
                [
                    2.91901606,
                    -4.57617601,
                    0.0
                ],
                [
                    2.91901606,
                    4.57617601,
                    0.0
                ],
                [
                    0.0,
                    0.0,
                    6.99895582
                ]
            ],
            "a": 5.427894769893522,
            "b": 5.427894769893522,
            "c": 6.99895582,
            "alpha": 90.0,
            "beta": 90.0,
            "gamma": 114.93464697558564,
            "volume": 186.98314156273423
        },
        "sites": [
            {
                "species": [
                    {
                        "element": "Na",
                        "occu": 1
                    }
                ],
                "abc": [
                    0.31981203,
                    0.68018797,
                    0.75
                ],
                "xyz": [
                    2.91901606,
                    1.6491437312091994,
                    5.249216865
                ],
                "label": "Na",
                "properties": {}
            },
            {
                "species": [
                    {
                        "element": "Na",
                        "occu": 1
                    }
                ],
                "abc": [
                    0.68018797,
                    0.31981203,
                    0.25
                ],
                "xyz": [
                    2.91901606,
                    -1.6491437312091994,
                    1.749738955
                ],
                "label": "Na",
                "properties": {}
            },
            {
                "species": [
                    {
                        "element": "V",
                        "occu": 1
                    }
                ],
                "abc": [
                    0.35063106,
                    0.64936894,
                    0.25
                ],
                "xyz": [
                    2.91901606,
                    1.367077119734259,
                    1.749738955
                ],
                "label": "V",
                "properties": {}
            },
            {
                "species": [
                    {
                        "element": "V",
                        "occu": 1
                    }
                ],
                "abc": [
                    0.64936894,
                    0.35063106,
                    0.75
                ],
                "xyz": [
                    2.91901606,
                    -1.367077119734259,
                    5.249216865
                ],
                "label": "V",
                "properties": {}
            },
            {
                "species": [
                    {
                        "element": "Cd",
                        "occu": 1
                    }
                ],
                "abc": [
                    0.0,
                    0.0,
                    0.0
                ],
                "xyz": [
                    0.0,
                    0.0,
                    0.0
                ],
                "label": "Cd",
                "properties": {}
            },
            {
                "species": [
                    {
                        "element": "Cd",
                        "occu": 1
                    }
                ],
                "abc": [
                    0.0,
                    0.0,
                    0.5
                ],
                "xyz": [
                    0.0,
                    0.0,
                    3.49947791
                ],
                "label": "Cd",
                "properties": {}
            },
            {
                "species": [
                    {
                        "element": "O",
                        "occu": 1
                    }
                ],
                "abc": [
                    0.77830704,
                    0.70775419,
                    0.75
                ],
                "xyz": [
                    4.337836596513354,
                    -0.32286225960712844,
                    5.249216865
                ],
                "label": "O",
                "properties": {}
            },
            {
                "species": [
                    {
                        "element": "O",
                        "occu": 1
                    }
                ],
                "abc": [
                    0.22169296,
                    0.29224581,
                    0.25
                ],
                "xyz": [
                    1.5001955234866462,
                    0.32286225960712844,
                    1.749738955
                ],
                "label": "O",
                "properties": {}
            },
            {
                "species": [
                    {
                        "element": "O",
                        "occu": 1
                    }
                ],
                "abc": [
                    0.70775419,
                    0.77830704,
                    0.25
                ],
                "xyz": [
                    4.337836596513354,
                    0.32286225960712844,
                    1.749738955
                ],
                "label": "O",
                "properties": {}
            },
            {
                "species": [
                    {
                        "element": "O",
                        "occu": 1
                    }
                ],
                "abc": [
                    0.29224581,
                    0.22169296,
                    0.75
                ],
                "xyz": [
                    1.5001955234866462,
                    -0.32286225960712844,
                    5.249216865
                ],
                "label": "O",
                "properties": {}
            },
            {
                "species": [
                    {
                        "element": "O",
                        "occu": 1
                    }
                ],
                "abc": [
                    0.24205309,
                    0.75794691,
                    0.05320204
                ],
                "xyz": [
                    2.91901606,
                    2.360820922791259,
                    0.3723587274938728
                ],
                "label": "O",
                "properties": {}
            },
            {
                "species": [
                    {
                        "element": "O",
                        "occu": 1
                    }
                ],
                "abc": [
                    0.75794691,
                    0.24205309,
                    0.55320204
                ],
                "xyz": [
                    2.91901606,
                    -2.360820922791259,
                    3.8718366374938724
                ],
                "label": "O",
                "properties": {}
            },
            {
                "species": [
                    {
                        "element": "O",
                        "occu": 1
                    }
                ],
                "abc": [
                    0.24205309,
                    0.75794691,
                    0.44679796
                ],
                "xyz": [
                    2.91901606,
                    2.360820922791259,
                    3.127119182506127
                ],
                "label": "O",
                "properties": {}
            },
            {
                "species": [
                    {
                        "element": "O",
                        "occu": 1
                    }
                ],
                "abc": [
                    0.75794691,
                    0.24205309,
                    0.94679796
                ],
                "xyz": [
                    2.91901606,
                    -2.360820922791259,
                    6.6265970925061275
                ],
                "label": "O",
                "properties": {}
            }
        ]
    },
    "spacegroup": {
        "source": "spglib",
        "symbol": "Cmcm",
        "number": 63,
        "point_group": "mmm",
        "crystal_system": "orthorhombic",
        "hall": "-C 2c 2"
    },
    "dielectric": {
        "epsilon_ionic": [
            [
                21.80531079,
                1e-08,
                -1e-08
            ],
            [
                1e-08,
                5.03834577,
                0.0
            ],
            [
                -1e-08,
                0.0,
                3.63460758
            ]
        ],
        "epsilon_ionic_avg": 10.159421380000003,
        "epsilon_ionic_eig": [
            21.805310790000004,
            5.038345770000004,
            3.63460758
        ],
        "epsilon_electronic": [
            [
                4.04955617,
                0.0,
                0.0
            ],
            [
                0.0,
                3.9996614,
                -0.0
            ],
            [
                0.0,
                0.0,
                3.73750153
            ]
        ],
        "epsilon_electronic_avg": 3.9289063666666664,
        "epsilon_electronic_eig": [
            4.04955617,
            3.9996614,
            3.73750153
        ]
    },
    "phonon": {
        "lowest_freq": -0.242131791188167,
        "frequency": [
            -0.242131791188167,
            -0.09179974319278165,
            -0.021640131633520892,
            1.7289893672419847,
            2.2706366511496108,
            2.371884569135952,
            2.652363778188039,
            2.937914169787493,
            3.5174929743184697,
            3.8638332073939057,
            4.001450812528898,
            4.487902691779732,
            4.501522801635327,
            4.5605779764214835,
            4.802030500803236,
            5.490869129619188,
            5.497091813074673,
            5.744851489249656,
            5.748711027646801,
            6.049173054688534,
            7.366512529482156,
            7.949649233027718,
            9.132487645466096,
            9.26987564508468,
            9.525090926491727,
            9.780924553266482,
            9.86140220432825,
            10.124631415301963,
            10.148022473226698,
            10.711800985207088,
            10.72333677969925,
            11.14660580658614,
            11.830328990387713,
            11.902964351278278,
            20.880482681364928,
            21.671708696075502,
            22.647923007044813,
            22.69887355151006,
            25.064962802906386,
            25.15934814394431,
            25.748999520954296,
            26.1827116429486
        ]
    },
    "born_effective_charge": {
        "avg_abs_trace": 2.0625902380952383,
        "tensors": [
            [
                [
                    1.06909,
                    2e-05,
                    -0.0
                ],
                [
                    0.0,
                    1.10607,
                    -0.0
                ],
                [
                    -0.0,
                    2e-05,
                    1.16321
                ]
            ],
            [
                [
                    1.06909,
                    -2e-05,
                    -0.0
                ],
                [
                    0.0,
                    1.10608,
                    -0.0
                ],
                [
                    -0.0,
                    -2e-05,
                    1.16321
                ]
            ],
            [
                [
                    3.59392,
                    -0.00024,
                    -0.0
                ],
                [
                    0.0,
                    3.58086,
                    -0.0
                ],
                [
                    0.0,
                    -8e-05,
                    3.05541
                ]
            ],
            [
                [
                    3.59392,
                    0.00024,
                    -0.0
                ],
                [
                    0.0,
                    3.58102,
                    -0.0
                ],
                [
                    0.0,
                    8e-05,
                    3.05541
                ]
            ],
            [
                [
                    2.81385,
                    0.0,
                    -0.0
                ],
                [
                    0.0,
                    2.74682,
                    0.74324
                ],
                [
                    -0.0,
                    -0.55686,
                    2.52788
                ]
            ],
            [
                [
                    2.81385,
                    0.0,
                    -0.0
                ],
                [
                    0.0,
                    2.74682,
                    -0.74324
                ],
                [
                    -0.0,
                    0.55686,
                    2.52788
                ]
            ],
            [
                [
                    -2.97835,
                    -1.33066,
                    -0.0
                ],
                [
                    -1.21661,
                    -1.74867,
                    -0.0
                ],
                [
                    7e-05,
                    7e-05,
                    -1.20085
                ]
            ],
            [
                [
                    -2.97883,
                    -1.33062,
                    -0.0
                ],
                [
                    -1.21698,
                    -1.74845,
                    -0.0
                ],
                [
                    -7e-05,
                    -7e-05,
                    -1.20085
                ]
            ],
            [
                [
                    -2.97835,
                    1.33066,
                    -0.0
                ],
                [
                    1.21698,
                    -1.74845,
                    -0.0
                ],
                [
                    7e-05,
                    -7e-05,
                    -1.20085
                ]
            ],
            [
                [
                    -2.97883,
                    1.33062,
                    -0.0
                ],
                [
                    1.21661,
                    -1.74867,
                    -0.0
                ],
                [
                    -7e-05,
                    7e-05,
                    -1.20085
                ]
            ],
            [
                [
                    -0.75984,
                    -2e-05,
                    0.00024
                ],
                [
                    0.0,
                    -1.96821,
                    1.12993
                ],
                [
                    -0.0,
                    1.23143,
                    -2.17254
                ]
            ],
            [
                [
                    -0.75984,
                    2e-05,
                    0.00024
                ],
                [
                    0.0,
                    -1.9685,
                    -1.12984
                ],
                [
                    -0.0,
                    -1.23143,
                    -2.17254
                ]
            ],
            [
                [
                    -0.75984,
                    -2e-05,
                    -0.00024
                ],
                [
                    0.0,
                    -1.96821,
                    -1.12993
                ],
                [
                    -0.0,
                    -1.23115,
                    -2.17227
                ]
            ],
            [
                [
                    -0.75984,
                    2e-05,
                    -0.00024
                ],
                [
                    0.0,
                    -1.9685,
                    1.12984
                ],
                [
                    -0.0,
                    1.23115,
                    -2.17227
                ]
            ]
        ]
    },
    "band_gap": 3.0606,
    "is_direct": true,
    "formula": "NaVCdO4"
}