{
    "mp_id": "mp-1211497",
    "nelements": 4,
    "nsites": 24,
    "elements": [
        "K",
        "O",
        "Sc",
        "W"
    ],
    "structure": {
        "@module": "pymatgen.core.structure",
        "@class": "Structure",
        "charge": null,
        "lattice": {
            "matrix": [
                [
                    5.3912372,
                    -5.01428765,
                    -4.868e-05
                ],
                [
                    5.3912372,
                    5.01428765,
                    -4.868e-05
                ],
                [
                    -4.74817489,
                    0.0,
                    5.50302238
                ]
            ],
            "a": 7.362643491707044,
            "b": 7.362643491707044,
            "c": 7.268316180574932,
            "alpha": 118.57814817655137,
            "beta": 118.57814817655137,
            "gamma": 85.8506315779024,
            "volume": 297.5264464868468
        },
        "sites": [
            {
                "species": [
                    {
                        "element": "K",
                        "occu": 1
                    }
                ],
                "abc": [
                    0.20302992,
                    0.79697008,
                    0.75
                ],
                "xyz": [
                    1.8301060325000003,
                    2.978186809127024,
                    4.127218105
                ],
                "label": "K",
                "properties": {}
            },
            {
                "species": [
                    {
                        "element": "K",
                        "occu": 1
                    }
                ],
                "abc": [
                    0.79697008,
                    0.20302992,
                    0.25
                ],
                "xyz": [
                    4.2041934775000005,
                    -2.978186809127024,
                    1.375706915
                ],
                "label": "K",
                "properties": {}
            },
            {
                "species": [
                    {
                        "element": "Sc",
                        "occu": 1
                    }
                ],
                "abc": [
                    0.77680644,
                    0.22319356,
                    0.75
                ],
                "xyz": [
                    1.8301060325000003,
                    -2.775974227064932,
                    4.127218105
                ],
                "label": "Sc",
                "properties": {}
            },
            {
                "species": [
                    {
                        "element": "Sc",
                        "occu": 1
                    }
                ],
                "abc": [
                    0.22319356,
                    0.77680644,
                    0.25
                ],
                "xyz": [
                    4.2041934775000005,
                    2.775974227064932,
                    1.375706915
                ],
                "label": "Sc",
                "properties": {}
            },
            {
                "species": [
                    {
                        "element": "W",
                        "occu": 1
                    }
                ],
                "abc": [
                    0.30554355,
                    0.29873144,
                    0.78758562
                ],
                "xyz": [
                    -0.48180445949145323,
                    -0.034157879043441364,
                    4.334071876919662
                ],
                "label": "W",
                "properties": {}
            },
            {
                "species": [
                    {
                        "element": "W",
                        "occu": 1
                    }
                ],
                "abc": [
                    0.69445645,
                    0.70126856,
                    0.21241438
                ],
                "xyz": [
                    6.516103969491454,
                    0.03415787904344203,
                    1.1688531430803377
                ],
                "label": "W",
                "properties": {}
            },
            {
                "species": [
                    {
                        "element": "W",
                        "occu": 1
                    }
                ],
                "abc": [
                    0.70126856,
                    0.69445645,
                    0.71241438
                ],
                "xyz": [
                    4.142016524491455,
                    -0.03415787904344203,
                    3.9203643330803377
                ],
                "label": "W",
                "properties": {}
            },
            {
                "species": [
                    {
                        "element": "W",
                        "occu": 1
                    }
                ],
                "abc": [
                    0.29873144,
                    0.30554355,
                    0.28758562
                ],
                "xyz": [
                    1.8922829855085468,
                    0.034157879043441364,
                    1.5825606869196622
                ],
                "label": "W",
                "properties": {}
            },
            {
                "species": [
                    {
                        "element": "O",
                        "occu": 1
                    }
                ],
                "abc": [
                    0.24145219,
                    0.381683,
                    0.55968211
                ],
                "xyz": [
                    0.7020010758728503,
                    0.7031576187324966,
                    3.0799128427945726
                ],
                "label": "O",
                "properties": {}
            },
            {
                "species": [
                    {
                        "element": "O",
                        "occu": 1
                    }
                ],
                "abc": [
                    0.75854781,
                    0.618317,
                    0.44031789
                ],
                "xyz": [
                    5.33229843412715,
                    -0.7031576187324968,
                    2.423012177205427
                ],
                "label": "O",
                "properties": {}
            },
            {
                "species": [
                    {
                        "element": "O",
                        "occu": 1
                    }
                ],
                "abc": [
                    0.618317,
                    0.75854781,
                    0.94031789
                ],
                "xyz": [
                    2.958210989127151,
                    0.7031576187324968,
                    5.174523367205427
                ],
                "label": "O",
                "properties": {}
            },
            {
                "species": [
                    {
                        "element": "O",
                        "occu": 1
                    }
                ],
                "abc": [
                    0.381683,
                    0.24145219,
                    0.05968211
                ],
                "xyz": [
                    3.07608852087285,
                    -0.7031576187324966,
                    0.32840165279457256
                ],
                "label": "O",
                "properties": {}
            },
            {
                "species": [
                    {
                        "element": "O",
                        "occu": 1
                    }
                ],
                "abc": [
                    0.96008702,
                    0.66447152,
                    0.89752227
                ],
                "xyz": [
                    4.496787728795888,
                    -1.4823011507985755,
                    4.939006054848675
                ],
                "label": "O",
                "properties": {}
            },
            {
                "species": [
                    {
                        "element": "O",
                        "occu": 1
                    }
                ],
                "abc": [
                    0.03991298,
                    0.33552848,
                    0.10247773
                ],
                "xyz": [
                    1.5375117812041126,
                    1.4823011507985753,
                    0.5639189651513247
                ],
                "label": "O",
                "properties": {}
            },
            {
                "species": [
                    {
                        "element": "O",
                        "occu": 1
                    }
                ],
                "abc": [
                    0.33552848,
                    0.03991298,
                    0.60247773
                ],
                "xyz": [
                    -0.8365756637958874,
                    -1.4823011507985753,
                    3.3154301551513248
                ],
                "label": "O",
                "properties": {}
            },
            {
                "species": [
                    {
                        "element": "O",
                        "occu": 1
                    }
                ],
                "abc": [
                    0.66447152,
                    0.96008702,
                    0.39752227
                ],
                "xyz": [
                    6.870875173795887,
                    1.4823011507985755,
                    2.1874948648486754
                ],
                "label": "O",
                "properties": {}
            },
            {
                "species": [
                    {
                        "element": "O",
                        "occu": 1
                    }
                ],
                "abc": [
                    0.62536078,
                    0.39317067,
                    0.94902459
                ],
                "xyz": [
                    0.9850099143793951,
                    -1.1642680010251414,
                    5.222453975829338
                ],
                "label": "O",
                "properties": {}
            },
            {
                "species": [
                    {
                        "element": "O",
                        "occu": 1
                    }
                ],
                "abc": [
                    0.37463922,
                    0.60682933,
                    0.05097541
                ],
                "xyz": [
                    5.049289595620604,
                    1.1642680010251414,
                    0.28047104417066177
                ],
                "label": "O",
                "properties": {}
            },
            {
                "species": [
                    {
                        "element": "O",
                        "occu": 1
                    }
                ],
                "abc": [
                    0.60682933,
                    0.37463922,
                    0.55097541
                ],
                "xyz": [
                    2.6752021506206045,
                    -1.1642680010251414,
                    3.031982234170662
                ],
                "label": "O",
                "properties": {}
            },
            {
                "species": [
                    {
                        "element": "O",
                        "occu": 1
                    }
                ],
                "abc": [
                    0.39317067,
                    0.62536078,
                    0.44902459
                ],
                "xyz": [
                    3.359097359379395,
                    1.1642680010251414,
                    2.4709427858293385
                ],
                "label": "O",
                "properties": {}
            },
            {
                "species": [
                    {
                        "element": "O",
                        "occu": 1
                    }
                ],
                "abc": [
                    0.03394801,
                    0.24753117,
                    0.70819083
                ],
                "xyz": [
                    -1.8450928900927628,
                    1.0709674014359738,
                    3.8971762843942934
                ],
                "label": "O",
                "properties": {}
            },
            {
                "species": [
                    {
                        "element": "O",
                        "occu": 1
                    }
                ],
                "abc": [
                    0.96605199,
                    0.75246883,
                    0.29180917
                ],
                "xyz": [
                    7.879392400092762,
                    -1.0709674014359742,
                    1.605748735605707
                ],
                "label": "O",
                "properties": {}
            },
            {
                "species": [
                    {
                        "element": "O",
                        "occu": 1
                    }
                ],
                "abc": [
                    0.75246883,
                    0.96605199,
                    0.79180917
                ],
                "xyz": [
                    5.505304955092763,
                    1.0709674014359742,
                    4.357259925605707
                ],
                "label": "O",
                "properties": {}
            },
            {
                "species": [
                    {
                        "element": "O",
                        "occu": 1
                    }
                ],
                "abc": [
                    0.24753117,
                    0.03394801,
                    0.20819083
                ],
                "xyz": [
                    0.5289945549072373,
                    -1.0709674014359738,
                    1.145665094394293
                ],
                "label": "O",
                "properties": {}
            }
        ]
    },
    "spacegroup": {
        "source": "spglib",
        "symbol": "C2/c",
        "number": 15,
        "point_group": "2/m",
        "crystal_system": "monoclinic",
        "hall": "-C 2yc"
    },
    "dielectric": {
        "epsilon_ionic": [
            [
                28.52584197,
                -4e-08,
                -17.47995639
            ],
            [
                -4e-08,
                10.2918395,
                1e-07
            ],
            [
                -17.47995639,
                1e-07,
                27.97249759
            ]
        ],
        "epsilon_ionic_avg": 22.263393020000006,
        "epsilon_ionic_eig": [
            45.731315612163215,
            10.767023947836798,
            10.291839499999996
        ],
        "epsilon_electronic": [
            [
                5.41618928,
                0.0,
                -0.48318042
            ],
            [
                0.0,
                4.5830809,
                0.0
            ],
            [
                -0.4831779,
                0.0,
                5.46424472
            ]
        ],
        "epsilon_electronic_avg": 5.154504966666667,
        "epsilon_electronic_eig": [
            4.956440779020593,
            5.9239932209794075,
            4.5830809
        ]
    },
    "phonon": {
        "lowest_freq": -0.048472715080414966,
        "frequency": [
            -0.048472715080414966,
            -0.03414757850186541,
            -0.026505859773669593,
            1.808784019809099,
            1.9271320960928875,
            2.9695959105846814,
            3.07131092741435,
            3.681223485242952,
            3.7963133925158985,
            3.7980880253573397,
            3.9245746995353064,
            4.0861422992808105,
            4.094394152637438,
            4.191772363295514,
            4.636319073389984,
            4.883914719842934,
            5.109653294574838,
            5.258395439451129,
            5.653410676491484,
            5.777854112940606,
            6.341213596384505,
            6.511584668057423,
            6.839681522793715,
            6.861402978959957,
            7.109580815615847,
            7.563770907789449,
            7.756858887531344,
            7.892566550843467,
            7.9406739014699195,
            8.423396016431695,
            8.753109425399709,
            8.766231945907318,
            8.892949599360056,
            8.92826193408108,
            9.067968042485195,
            9.288013303970601,
            9.661227855945036,
            9.990649403640875,
            10.115282092238632,
            10.2244183313885,
            10.419265144558244,
            10.476006666233284,
            10.779085444111384,
            10.893932593491149,
            11.795960801213639,
            12.37999772874133,
            12.624531171921129,
            12.782801535546685,
            12.950196614041118,
            13.37318462950956,
            13.56792348928096,
            13.635335981687689,
            14.260974646518783,
            14.45675613556613,
            14.998038559017598,
            15.482009488532025,
            15.818065516618452,
            15.930288022127193,
            17.666367116650495,
            17.744738635680495,
            17.89885652812983,
            18.277191362635854,
            20.524863601808484,
            20.578190245682535,
            20.944800063532366,
            22.21369031146541,
            22.214177594890472,
            24.5081630546289,
            24.788063527270616,
            25.791035508857203,
            26.210033483602224,
            26.477682756212587
        ]
    },
    "born_effective_charge": {
        "avg_abs_trace": 3.4357415277777776,
        "tensors": [
            [
                [
                    1.14684,
                    -4e-05,
                    0.10082
                ],
                [
                    -0.0,
                    1.38387,
                    0.0
                ],
                [
                    0.07383,
                    4e-05,
                    1.17229
                ]
            ],
            [
                [
                    1.14684,
                    4e-05,
                    0.10082
                ],
                [
                    -0.0,
                    1.38391,
                    0.0
                ],
                [
                    0.07383,
                    -4e-05,
                    1.17229
                ]
            ],
            [
                [
                    4.92956,
                    0.00022,
                    -0.35824
                ],
                [
                    -0.0,
                    5.79951,
                    0.0
                ],
                [
                    -0.14259,
                    -0.0003,
                    4.89956
                ]
            ],
            [
                [
                    4.92956,
                    -0.00022,
                    -0.35824
                ],
                [
                    -0.0,
                    5.79948,
                    0.0
                ],
                [
                    -0.14259,
                    0.0003,
                    4.89956
                ]
            ],
            [
                [
                    7.97955,
                    0.51744,
                    -1.116
                ],
                [
                    -0.58649,
                    5.2858,
                    0.51081
                ],
                [
                    -1.29889,
                    -0.22329,
                    7.99053
                ]
            ],
            [
                [
                    7.9797,
                    0.51748,
                    -1.11526
                ],
                [
                    -0.58642,
                    5.28568,
                    0.51053
                ],
                [
                    -1.29958,
                    -0.22349,
                    7.99046
                ]
            ],
            [
                [
                    7.9797,
                    -0.51748,
                    -1.11526
                ],
                [
                    0.58649,
                    5.2858,
                    -0.51081
                ],
                [
                    -1.29958,
                    0.22349,
                    7.99046
                ]
            ],
            [
                [
                    7.97955,
                    -0.51744,
                    -1.116
                ],
                [
                    0.58642,
                    5.28568,
                    -0.51053
                ],
                [
                    -1.29889,
                    0.22329,
                    7.99053
                ]
            ],
            [
                [
                    -3.35167,
                    -0.36272,
                    2.526
                ],
                [
                    -0.11953,
                    -1.13065,
                    0.10776
                ],
                [
                    2.4286,
                    0.31351,
                    -3.88382
                ]
            ],
            [
                [
                    -3.35177,
                    -0.36239,
                    2.52502
                ],
                [
                    -0.11978,
                    -1.1311,
                    0.10801
                ],
                [
                    2.42942,
                    0.3132,
                    -3.8835
                ]
            ],
            [
                [
                    -3.35177,
                    0.36239,
                    2.52502
                ],
                [
                    0.11953,
                    -1.13065,
                    -0.10776
                ],
                [
                    2.42942,
                    -0.3132,
                    -3.8835
                ]
            ],
            [
                [
                    -3.35167,
                    0.36272,
                    2.526
                ],
                [
                    0.11978,
                    -1.1311,
                    -0.10801
                ],
                [
                    2.4286,
                    -0.31351,
                    -3.88382
                ]
            ],
            [
                [
                    -1.3434,
                    0.65665,
                    -0.25447
                ],
                [
                    0.37641,
                    -2.67984,
                    1.41411
                ],
                [
                    -0.39527,
                    1.84991,
                    -2.95283
                ]
            ],
            [
                [
                    -1.34317,
                    0.65626,
                    -0.25451
                ],
                [
                    0.37656,
                    -2.67998,
                    1.41444
                ],
                [
                    -0.3953,
                    1.85017,
                    -2.95251
                ]
            ],
            [
                [
                    -1.34317,
                    -0.65626,
                    -0.25451
                ],
                [
                    -0.37641,
                    -2.67984,
                    -1.41411
                ],
                [
                    -0.3953,
                    -1.85017,
                    -2.95251
                ]
            ],
            [
                [
                    -1.3434,
                    -0.65665,
                    -0.25447
                ],
                [
                    -0.37656,
                    -2.67998,
                    -1.41444
                ],
                [
                    -0.39527,
                    -1.84991,
                    -2.95283
                ]
            ],
            [
                [
                    -2.63025,
                    0.4995,
                    -0.72775
                ],
                [
                    0.61655,
                    -2.88694,
                    -0.78058
                ],
                [
                    -0.61362,
                    -0.69989,
                    -2.83731
                ]
            ],
            [
                [
                    -2.6302,
                    0.49992,
                    -0.72768
                ],
                [
                    0.61688,
                    -2.88701,
                    -0.78065
                ],
                [
                    -0.614,
                    -0.70019,
                    -2.83776
                ]
            ],
            [
                [
                    -2.6302,
                    -0.49992,
                    -0.72768
                ],
                [
                    -0.61655,
                    -2.88694,
                    0.78058
                ],
                [
                    -0.614,
                    0.70019,
                    -2.83776
                ]
            ],
            [
                [
                    -2.63025,
                    -0.4995,
                    -0.72775
                ],
                [
                    -0.61688,
                    -2.88701,
                    0.78065
                ],
                [
                    -0.61362,
                    0.69989,
                    -2.83731
                ]
            ],
            [
                [
                    -3.69261,
                    1.94973,
                    -0.29877
                ],
                [
                    1.66933,
                    -2.17992,
                    0.37249
                ],
                [
                    -0.08646,
                    0.49396,
                    -1.35278
                ]
            ],
            [
                [
                    -3.69258,
                    1.94982,
                    -0.29916
                ],
                [
                    1.66907,
                    -2.17942,
                    0.37263
                ],
                [
                    -0.08614,
                    0.49367,
                    -1.35232
                ]
            ],
            [
                [
                    -3.69258,
                    -1.94982,
                    -0.29916
                ],
                [
                    -1.66933,
                    -2.17992,
                    -0.37249
                ],
                [
                    -0.08614,
                    -0.49367,
                    -1.35232
                ]
            ],
            [
                [
                    -3.69261,
                    -1.94973,
                    -0.29877
                ],
                [
                    -1.66907,
                    -2.17942,
                    -0.37263
                ],
                [
                    -0.08646,
                    -0.49396,
                    -1.35278
                ]
            ]
        ]
    },
    "band_gap": 3.1161999999999996,
    "is_direct": false,
    "formula": "KSc(WO4)2"
}