{
    "mp_id": "mp-1213697",
    "nelements": 4,
    "nsites": 24,
    "elements": [
        "Bi",
        "Cs",
        "Mo",
        "O"
    ],
    "structure": {
        "@module": "pymatgen.core.structure",
        "@class": "Structure",
        "charge": null,
        "lattice": {
            "matrix": [
                [
                    5.16663369,
                    0.0,
                    0.0
                ],
                [
                    0.0,
                    9.39257524,
                    0.0
                ],
                [
                    0.0,
                    0.0,
                    8.15941604
                ]
            ],
            "a": 5.16663369,
            "b": 9.39257524,
            "c": 8.15941604,
            "alpha": 90.0,
            "beta": 90.0,
            "gamma": 90.0,
            "volume": 395.96010626573377
        },
        "sites": [
            {
                "species": [
                    {
                        "element": "Cs",
                        "occu": 1
                    }
                ],
                "abc": [
                    0.0,
                    0.5,
                    0.25
                ],
                "xyz": [
                    0.0,
                    4.69628762,
                    2.03985401
                ],
                "label": "Cs",
                "properties": {}
            },
            {
                "species": [
                    {
                        "element": "Cs",
                        "occu": 1
                    }
                ],
                "abc": [
                    0.0,
                    0.5,
                    0.75
                ],
                "xyz": [
                    0.0,
                    4.69628762,
                    6.11956203
                ],
                "label": "Cs",
                "properties": {}
            },
            {
                "species": [
                    {
                        "element": "Bi",
                        "occu": 1
                    }
                ],
                "abc": [
                    0.0,
                    0.0,
                    0.25
                ],
                "xyz": [
                    0.0,
                    0.0,
                    2.03985401
                ],
                "label": "Bi",
                "properties": {}
            },
            {
                "species": [
                    {
                        "element": "Bi",
                        "occu": 1
                    }
                ],
                "abc": [
                    0.0,
                    0.0,
                    0.75
                ],
                "xyz": [
                    0.0,
                    0.0,
                    6.11956203
                ],
                "label": "Bi",
                "properties": {}
            },
            {
                "species": [
                    {
                        "element": "Mo",
                        "occu": 1
                    }
                ],
                "abc": [
                    0.52541917,
                    0.19498794,
                    0.0
                ],
                "xyz": [
                    2.7146483850938377,
                    1.8314388973426055,
                    0.0
                ],
                "label": "Mo",
                "properties": {}
            },
            {
                "species": [
                    {
                        "element": "Mo",
                        "occu": 1
                    }
                ],
                "abc": [
                    0.47458083,
                    0.80501206,
                    0.0
                ],
                "xyz": [
                    2.451985304906163,
                    7.561136342657394,
                    0.0
                ],
                "label": "Mo",
                "properties": {}
            },
            {
                "species": [
                    {
                        "element": "Mo",
                        "occu": 1
                    }
                ],
                "abc": [
                    0.47458083,
                    0.19498794,
                    0.5
                ],
                "xyz": [
                    2.451985304906163,
                    1.8314388973426055,
                    4.07970802
                ],
                "label": "Mo",
                "properties": {}
            },
            {
                "species": [
                    {
                        "element": "Mo",
                        "occu": 1
                    }
                ],
                "abc": [
                    0.52541917,
                    0.80501206,
                    0.5
                ],
                "xyz": [
                    2.7146483850938377,
                    7.561136342657394,
                    4.07970802
                ],
                "label": "Mo",
                "properties": {}
            },
            {
                "species": [
                    {
                        "element": "O",
                        "occu": 1
                    }
                ],
                "abc": [
                    0.25974627,
                    0.05909051,
                    0.0
                ],
                "xyz": [
                    1.3420138294338364,
                    0.5550120611449724,
                    0.0
                ],
                "label": "O",
                "properties": {}
            },
            {
                "species": [
                    {
                        "element": "O",
                        "occu": 1
                    }
                ],
                "abc": [
                    0.74025373,
                    0.94090949,
                    0.0
                ],
                "xyz": [
                    3.8246198605661643,
                    8.837563178855028,
                    0.0
                ],
                "label": "O",
                "properties": {}
            },
            {
                "species": [
                    {
                        "element": "O",
                        "occu": 1
                    }
                ],
                "abc": [
                    0.74025373,
                    0.05909051,
                    0.5
                ],
                "xyz": [
                    3.8246198605661643,
                    0.5550120611449724,
                    4.07970802
                ],
                "label": "O",
                "properties": {}
            },
            {
                "species": [
                    {
                        "element": "O",
                        "occu": 1
                    }
                ],
                "abc": [
                    0.25974627,
                    0.94090949,
                    0.5
                ],
                "xyz": [
                    1.3420138294338364,
                    8.837563178855028,
                    4.07970802
                ],
                "label": "O",
                "properties": {}
            },
            {
                "species": [
                    {
                        "element": "O",
                        "occu": 1
                    }
                ],
                "abc": [
                    0.26303226,
                    0.19591006,
                    0.32410942
                ],
                "xyz": [
                    1.3589913360728396,
                    1.8400999788229142,
                    2.6445436002630966
                ],
                "label": "O",
                "properties": {}
            },
            {
                "species": [
                    {
                        "element": "O",
                        "occu": 1
                    }
                ],
                "abc": [
                    0.73696774,
                    0.80408994,
                    0.67589058
                ],
                "xyz": [
                    3.807642353927161,
                    7.552475261177085,
                    5.514872439736903
                ],
                "label": "O",
                "properties": {}
            },
            {
                "species": [
                    {
                        "element": "O",
                        "occu": 1
                    }
                ],
                "abc": [
                    0.73696774,
                    0.80408994,
                    0.32410942
                ],
                "xyz": [
                    3.807642353927161,
                    7.552475261177085,
                    2.6445436002630966
                ],
                "label": "O",
                "properties": {}
            },
            {
                "species": [
                    {
                        "element": "O",
                        "occu": 1
                    }
                ],
                "abc": [
                    0.73696774,
                    0.19591006,
                    0.17589058
                ],
                "xyz": [
                    3.807642353927161,
                    1.8400999788229142,
                    1.4351644197369031
                ],
                "label": "O",
                "properties": {}
            },
            {
                "species": [
                    {
                        "element": "O",
                        "occu": 1
                    }
                ],
                "abc": [
                    0.26303226,
                    0.19591006,
                    0.67589058
                ],
                "xyz": [
                    1.3589913360728396,
                    1.8400999788229142,
                    5.514872439736903
                ],
                "label": "O",
                "properties": {}
            },
            {
                "species": [
                    {
                        "element": "O",
                        "occu": 1
                    }
                ],
                "abc": [
                    0.26303226,
                    0.80408994,
                    0.82410942
                ],
                "xyz": [
                    1.3589913360728396,
                    7.552475261177085,
                    6.724251620263097
                ],
                "label": "O",
                "properties": {}
            },
            {
                "species": [
                    {
                        "element": "O",
                        "occu": 1
                    }
                ],
                "abc": [
                    0.26303226,
                    0.80408994,
                    0.17589058
                ],
                "xyz": [
                    1.3589913360728396,
                    7.552475261177085,
                    1.4351644197369031
                ],
                "label": "O",
                "properties": {}
            },
            {
                "species": [
                    {
                        "element": "O",
                        "occu": 1
                    }
                ],
                "abc": [
                    0.73696774,
                    0.19591006,
                    0.82410942
                ],
                "xyz": [
                    3.807642353927161,
                    1.8400999788229142,
                    6.724251620263097
                ],
                "label": "O",
                "properties": {}
            },
            {
                "species": [
                    {
                        "element": "O",
                        "occu": 1
                    }
                ],
                "abc": [
                    0.37522713,
                    0.36044604,
                    0.0
                ],
                "xyz": [
                    1.93866113126001,
                    3.3855165506600495,
                    0.0
                ],
                "label": "O",
                "properties": {}
            },
            {
                "species": [
                    {
                        "element": "O",
                        "occu": 1
                    }
                ],
                "abc": [
                    0.62477287,
                    0.63955396,
                    0.0
                ],
                "xyz": [
                    3.2279725587399906,
                    6.007058689339949,
                    0.0
                ],
                "label": "O",
                "properties": {}
            },
            {
                "species": [
                    {
                        "element": "O",
                        "occu": 1
                    }
                ],
                "abc": [
                    0.62477287,
                    0.36044604,
                    0.5
                ],
                "xyz": [
                    3.2279725587399906,
                    3.3855165506600495,
                    4.07970802
                ],
                "label": "O",
                "properties": {}
            },
            {
                "species": [
                    {
                        "element": "O",
                        "occu": 1
                    }
                ],
                "abc": [
                    0.37522713,
                    0.63955396,
                    0.5
                ],
                "xyz": [
                    1.93866113126001,
                    6.007058689339949,
                    4.07970802
                ],
                "label": "O",
                "properties": {}
            }
        ]
    },
    "spacegroup": {
        "source": "spglib",
        "symbol": "Pccm",
        "number": 49,
        "point_group": "mmm",
        "crystal_system": "orthorhombic",
        "hall": "-P 2 2c"
    },
    "dielectric": {
        "epsilon_ionic": [
            [
                15.69996612,
                7e-08,
                -1.8e-07
            ],
            [
                7e-08,
                5.85691967,
                -1.2e-07
            ],
            [
                -1.8e-07,
                -1.2e-07,
                23.56572606
            ]
        ],
        "epsilon_ionic_avg": 15.040870616666671,
        "epsilon_ionic_eig": [
            15.699966119999996,
            23.565726060000014,
            5.856919670000001
        ],
        "epsilon_electronic": [
            [
                5.07656937,
                0.0,
                0.0
            ],
            [
                0.0,
                3.82464456,
                0.0
            ],
            [
                0.0,
                0.0,
                4.61595648
            ]
        ],
        "epsilon_electronic_avg": 4.5057234699999995,
        "epsilon_electronic_eig": [
            5.07656937,
            3.82464456,
            4.61595648
        ]
    },
    "phonon": {
        "lowest_freq": -0.16691154914711342,
        "frequency": [
            -0.16691154914711342,
            -0.06402825464808087,
            -0.05640510136957538,
            0.2631990252639735,
            0.8200401661079542,
            1.1490866487855216,
            1.3098418994677234,
            1.4245942541587786,
            1.504307782801625,
            1.5333053181657144,
            1.7457787650693515,
            1.9181286307478236,
            2.123005266575176,
            2.3955287164631978,
            2.5058502396531033,
            2.6550778904713965,
            2.7882902122262148,
            2.8218535107425087,
            2.84637140751885,
            3.0677158964133118,
            3.2328356007474195,
            3.44704102636024,
            3.6296293684770577,
            3.746624378409291,
            3.7980743159483876,
            4.180481819955345,
            4.547814942139604,
            4.740230954202184,
            5.131230579420855,
            5.683328080504432,
            5.857896848088977,
            6.55285517215327,
            6.5560928109079235,
            6.614554032592198,
            6.785198648828991,
            7.177997356492634,
            7.4295762057858,
            7.751348674438688,
            8.268657154792985,
            8.474498381307653,
            8.517267669902948,
            9.169929221291037,
            9.218385264232836,
            10.015800465337284,
            10.18362516462393,
            10.203923902798374,
            10.24474188975669,
            10.431080973872538,
            10.608526204834689,
            11.003485647444803,
            11.037929903862157,
            11.106977902346289,
            11.512007231217968,
            12.061610528773542,
            12.207526392635245,
            12.858291668291193,
            19.073870029749216,
            19.52014998563334,
            20.39874777983972,
            20.78754012133869,
            21.05412792082472,
            21.77450773058291,
            22.425578730635017,
            23.20687351798069,
            23.98547035882538,
            24.380921133688712,
            24.650751209193178,
            24.729988968812947,
            26.8041577152629,
            26.82381478215867,
            27.428419008283424,
            28.016545151835906
        ]
    },
    "born_effective_charge": {
        "avg_abs_trace": 2.6701416666666664,
        "tensors": [
            [
                [
                    1.46362,
                    -0.0,
                    -0.0
                ],
                [
                    0.0,
                    2.13406,
                    0.0
                ],
                [
                    0.0,
                    -0.0,
                    1.18032
                ]
            ],
            [
                [
                    1.46362,
                    -0.0,
                    -0.0
                ],
                [
                    0.0,
                    2.13406,
                    0.0
                ],
                [
                    0.0,
                    -0.0,
                    1.18032
                ]
            ],
            [
                [
                    6.45945,
                    -0.0,
                    -0.0
                ],
                [
                    0.0,
                    3.2604,
                    0.0
                ],
                [
                    0.0,
                    -0.0,
                    5.54006
                ]
            ],
            [
                [
                    6.45945,
                    -0.0,
                    -0.0
                ],
                [
                    0.0,
                    3.2604,
                    0.0
                ],
                [
                    0.0,
                    -0.0,
                    5.54006
                ]
            ],
            [
                [
                    5.13541,
                    0.68742,
                    -0.0
                ],
                [
                    -0.54167,
                    3.74155,
                    0.0
                ],
                [
                    2e-05,
                    2e-05,
                    5.13508
                ]
            ],
            [
                [
                    5.13582,
                    0.68801,
                    -0.0
                ],
                [
                    -0.54232,
                    3.7417,
                    0.0
                ],
                [
                    -2e-05,
                    -2e-05,
                    5.13508
                ]
            ],
            [
                [
                    5.13582,
                    -0.68801,
                    -0.0
                ],
                [
                    0.54167,
                    3.74155,
                    0.0
                ],
                [
                    -2e-05,
                    2e-05,
                    5.13508
                ]
            ],
            [
                [
                    5.13541,
                    -0.68742,
                    -0.0
                ],
                [
                    0.54232,
                    3.7417,
                    0.0
                ],
                [
                    2e-05,
                    -2e-05,
                    5.13508
                ]
            ],
            [
                [
                    -3.40224,
                    -1.79499,
                    -0.0
                ],
                [
                    -0.95047,
                    -1.67574,
                    0.0
                ],
                [
                    -8e-05,
                    -0.00039,
                    -2.17254
                ]
            ],
            [
                [
                    -3.40334,
                    -1.79556,
                    -0.0
                ],
                [
                    -0.95113,
                    -1.67763,
                    0.0
                ],
                [
                    8e-05,
                    0.00039,
                    -2.17254
                ]
            ],
            [
                [
                    -3.40334,
                    1.79556,
                    -0.0
                ],
                [
                    0.95047,
                    -1.67574,
                    0.0
                ],
                [
                    8e-05,
                    -0.00039,
                    -2.17254
                ]
            ],
            [
                [
                    -3.40224,
                    1.79499,
                    -0.0
                ],
                [
                    0.95113,
                    -1.67763,
                    0.0
                ],
                [
                    -8e-05,
                    0.00039,
                    -2.17254
                ]
            ],
            [
                [
                    -2.23144,
                    -0.77627,
                    -1.60125
                ],
                [
                    -0.41244,
                    -1.06026,
                    -0.3939
                ],
                [
                    -1.46605,
                    -0.40261,
                    -2.72534
                ]
            ],
            [
                [
                    -2.23126,
                    -0.77617,
                    -1.60098
                ],
                [
                    -0.41282,
                    -1.06037,
                    -0.39329
                ],
                [
                    -1.46592,
                    -0.40226,
                    -2.72619
                ]
            ],
            [
                [
                    -2.23126,
                    -0.77617,
                    1.60098
                ],
                [
                    -0.41282,
                    -1.06037,
                    0.39329
                ],
                [
                    1.46605,
                    0.40261,
                    -2.72534
                ]
            ],
            [
                [
                    -2.23126,
                    0.77617,
                    -1.60098
                ],
                [
                    0.41244,
                    -1.06026,
                    0.3939
                ],
                [
                    -1.46592,
                    0.40226,
                    -2.72619
                ]
            ],
            [
                [
                    -2.23144,
                    -0.77627,
                    1.60125
                ],
                [
                    -0.41244,
                    -1.06026,
                    0.3939
                ],
                [
                    1.46592,
                    0.40226,
                    -2.72619
                ]
            ],
            [
                [
                    -2.23144,
                    0.77627,
                    -1.60125
                ],
                [
                    0.41282,
                    -1.06037,
                    0.39329
                ],
                [
                    -1.46605,
                    0.40261,
                    -2.72534
                ]
            ],
            [
                [
                    -2.23144,
                    0.77627,
                    1.60125
                ],
                [
                    0.41282,
                    -1.06037,
                    -0.39329
                ],
                [
                    1.46592,
                    -0.40226,
                    -2.72619
                ]
            ],
            [
                [
                    -2.23126,
                    0.77617,
                    1.60098
                ],
                [
                    0.41244,
                    -1.06026,
                    -0.3939
                ],
                [
                    1.46605,
                    -0.40261,
                    -2.72534
                ]
            ],
            [
                [
                    -1.23116,
                    1.09153,
                    -0.0
                ],
                [
                    1.15757,
                    -2.6414,
                    0.0
                ],
                [
                    -0.00038,
                    0.00055,
                    -0.8712
                ]
            ],
            [
                [
                    -1.23214,
                    1.09224,
                    -0.0
                ],
                [
                    1.15699,
                    -2.6417,
                    0.0
                ],
                [
                    0.00038,
                    -0.00055,
                    -0.8712
                ]
            ],
            [
                [
                    -1.23214,
                    -1.09224,
                    -0.0
                ],
                [
                    -1.15757,
                    -2.6414,
                    0.0
                ],
                [
                    0.00038,
                    0.00055,
                    -0.8712
                ]
            ],
            [
                [
                    -1.23116,
                    -1.09153,
                    -0.0
                ],
                [
                    -1.15699,
                    -2.6417,
                    0.0
                ],
                [
                    -0.00038,
                    -0.00055,
                    -0.8712
                ]
            ]
        ]
    },
    "band_gap": 2.3999999999999995,
    "is_direct": false,
    "formula": "CsBi(MoO4)2"
}