{
    "mp_id": "mp-1219606",
    "nelements": 4,
    "nsites": 18,
    "elements": [
        "Mo",
        "O",
        "Rb",
        "Sb"
    ],
    "structure": {
        "@module": "pymatgen.core.structure",
        "@class": "Structure",
        "charge": null,
        "lattice": {
            "matrix": [
                [
                    -3.60519586,
                    5.08622063,
                    3.77827497
                ],
                [
                    3.60519586,
                    -5.08622063,
                    3.77827497
                ],
                [
                    3.60519586,
                    5.08622063,
                    -3.77827497
                ]
            ],
            "a": 7.289886092040618,
            "b": 7.289886092040618,
            "c": 7.289886092040618,
            "alpha": 120.72015059456,
            "beta": 91.5129981522861,
            "gamma": 117.56476605633353,
            "volume": 277.1262156926665
        },
        "sites": [
            {
                "species": [
                    {
                        "element": "Rb",
                        "occu": 1
                    }
                ],
                "abc": [
                    0.07850134,
                    0.68902449,
                    0.88947685
                ],
                "xyz": [
                    5.4077937899999995,
                    1.418820063754831,
                    -0.46076448643196954
                ],
                "label": "Rb",
                "properties": {}
            },
            {
                "species": [
                    {
                        "element": "Rb",
                        "occu": 1
                    }
                ],
                "abc": [
                    0.79954764,
                    0.18902449,
                    0.11052315
                ],
                "xyz": [
                    -1.8025979299999997,
                    3.6674005662451683,
                    3.3175104835680305
                ],
                "label": "Rb",
                "properties": {}
            },
            {
                "species": [
                    {
                        "element": "Sb",
                        "occu": 1
                    }
                ],
                "abc": [
                    0.50704024,
                    0.50704024,
                    0.0
                ],
                "xyz": [
                    0.0,
                    0.0,
                    3.831474895149586
                ],
                "label": "Sb",
                "properties": {}
            },
            {
                "species": [
                    {
                        "element": "Sb",
                        "occu": 1
                    }
                ],
                "abc": [
                    0.50704024,
                    0.00704024,
                    0.5
                ],
                "xyz": [
                    0.0,
                    5.08622063,
                    0.053199925149585825
                ],
                "label": "Sb",
                "properties": {}
            },
            {
                "species": [
                    {
                        "element": "Mo",
                        "occu": 1
                    }
                ],
                "abc": [
                    0.4607439,
                    0.47258061,
                    0.48816329
                ],
                "xyz": [
                    1.8025979300000003,
                    2.4227020778133452,
                    1.6819414951406637
                ],
                "label": "Mo",
                "properties": {}
            },
            {
                "species": [
                    {
                        "element": "Mo",
                        "occu": 1
                    }
                ],
                "abc": [
                    0.98441632,
                    0.97258061,
                    0.51183671
                ],
                "xyz": [
                    1.8026015351958597,
                    2.6635134659660245,
                    5.4602126868656935
                ],
                "label": "Mo",
                "properties": {}
            },
            {
                "species": [
                    {
                        "element": "O",
                        "occu": 1
                    }
                ],
                "abc": [
                    0.82015441,
                    0.75142063,
                    0.56873477
                ],
                "xyz": [
                    1.8026014991439014,
                    3.242305689986186,
                    3.789006291049042
                ],
                "label": "O",
                "properties": {}
            },
            {
                "species": [
                    {
                        "element": "O",
                        "occu": 1
                    }
                ],
                "abc": [
                    0.43420941,
                    0.76303423,
                    0.17117518
                ],
                "xyz": [
                    1.80259793,
                    -0.8018408512800732,
                    3.8767687799244466
                ],
                "label": "O",
                "properties": {}
            },
            {
                "species": [
                    {
                        "element": "O",
                        "occu": 1
                    }
                ],
                "abc": [
                    0.44482782,
                    0.37966433,
                    0.18997577
                ],
                "xyz": [
                    0.44997271513316073,
                    1.2976945677349336,
                    2.3973773566090086
                ],
                "label": "O",
                "properties": {}
            },
            {
                "species": [
                    {
                        "element": "O",
                        "occu": 1
                    }
                ],
                "abc": [
                    0.82467397,
                    0.13195431,
                    0.56624485
                ],
                "xyz": [
                    -0.4559664614062866,
                    6.4033712631998405,
                    1.474975942271747
                ],
                "label": "O",
                "properties": {}
            },
            {
                "species": [
                    {
                        "element": "O",
                        "occu": 1
                    }
                ],
                "abc": [
                    0.82467397,
                    0.75842912,
                    0.19272066
                ],
                "xyz": [
                    0.45597006660214656,
                    1.3171557194204715,
                    5.253247133996777
                ],
                "label": "O",
                "properties": {}
            },
            {
                "species": [
                    {
                        "element": "O",
                        "occu": 1
                    }
                ],
                "abc": [
                    0.44482782,
                    0.75485304,
                    0.56516449
                ],
                "xyz": [
                    3.1552303192066002,
                    1.2976946185971405,
                    2.3973773188262593
                ],
                "label": "O",
                "properties": {}
            },
            {
                "species": [
                    {
                        "element": "O",
                        "occu": 1
                    }
                ],
                "abc": [
                    0.18268586,
                    0.25142063,
                    0.43126523
                ],
                "xyz": [
                    1.8025979299999997,
                    1.8439099046553897,
                    0.010735061541262247
                ],
                "label": "O",
                "properties": {}
            },
            {
                "species": [
                    {
                        "element": "O",
                        "occu": 1
                    }
                ],
                "abc": [
                    0.59185905,
                    0.26303423,
                    0.82882482
                ],
                "xyz": [
                    1.8025979299999997,
                    5.888061481280072,
                    0.09849380992444612
                ],
                "label": "O",
                "properties": {}
            },
            {
                "species": [
                    {
                        "element": "O",
                        "occu": 1
                    }
                ],
                "abc": [
                    0.56570946,
                    0.63195431,
                    0.80727934
                ],
                "xyz": [
                    3.149225793397853,
                    3.769064910579528,
                    1.4749797205467172
                ],
                "label": "O",
                "properties": {}
            },
            {
                "species": [
                    {
                        "element": "O",
                        "occu": 1
                    }
                ],
                "abc": [
                    0.18968855,
                    0.87966433,
                    0.43483551
                ],
                "xyz": [
                    4.055165005989259,
                    -1.2976997048177705,
                    2.3973810971012286
                ],
                "label": "O",
                "properties": {}
            },
            {
                "species": [
                    {
                        "element": "O",
                        "occu": 1
                    }
                ],
                "abc": [
                    0.18968855,
                    0.25485304,
                    0.81002423
                ],
                "xyz": [
                    3.155226750062699,
                    3.7885209760444365,
                    -1.3808939106815208
                ],
                "label": "O",
                "properties": {}
            },
            {
                "species": [
                    {
                        "element": "O",
                        "occu": 1
                    }
                ],
                "abc": [
                    0.56570946,
                    0.25842912,
                    0.43375515
                ],
                "xyz": [
                    0.4559664614062866,
                    3.7690699968001584,
                    1.4749759422717474
                ],
                "label": "O",
                "properties": {}
            }
        ]
    },
    "spacegroup": {
        "source": "spglib",
        "symbol": "Ima2",
        "number": 46,
        "point_group": "mm2",
        "crystal_system": "orthorhombic",
        "hall": "I 2 -2a"
    },
    "dielectric": {
        "epsilon_ionic": [
            [
                17.50081382,
                1e-08,
                -6.713e-05
            ],
            [
                1e-08,
                15.13935903,
                -0.00024529
            ],
            [
                -6.713e-05,
                -0.00024529,
                13.72365776
            ]
        ],
        "epsilon_ionic_avg": 15.454610203333337,
        "epsilon_ionic_eig": [
            17.50081382119309,
            13.72365771630701,
            15.13935907249991
        ],
        "epsilon_electronic": [
            [
                4.25987006,
                0.0,
                0.0
            ],
            [
                0.0,
                4.64450875,
                0.0
            ],
            [
                0.0,
                0.0,
                4.55617591
            ]
        ],
        "epsilon_electronic_avg": 4.486851573333333,
        "epsilon_electronic_eig": [
            4.25987006,
            4.64450875,
            4.55617591
        ]
    },
    "phonon": {
        "lowest_freq": -0.07579957606935284,
        "frequency": [
            -0.07579957606935284,
            -0.05481756366497518,
            -0.045561025360542906,
            1.3710968489807487,
            1.4424409187764493,
            1.64265918527057,
            1.6566998781386548,
            1.7515633327076234,
            1.7990348168289338,
            3.2040964960910445,
            3.2576540828702107,
            3.6817986221168386,
            4.366763388588885,
            4.487605256633898,
            5.01490877102826,
            5.319543237370929,
            5.8906462000827435,
            5.980071945268194,
            6.190949015582016,
            6.253522837622921,
            6.309163009286161,
            6.584256870190256,
            6.806638687573529,
            7.8822802652682515,
            7.900474073310278,
            8.254890131163746,
            8.753100057724293,
            8.777794141749098,
            9.921700012023424,
            10.227289572042542,
            10.41780325255886,
            10.70426083610865,
            11.87479266729288,
            12.292576920605198,
            12.452747996788165,
            12.848256483543846,
            13.283784430103005,
            13.398920833285745,
            13.453515751199982,
            13.845062688391524,
            13.85009692262349,
            14.39224319133146,
            17.908191253343098,
            17.9622360159524,
            19.384709041822457,
            19.893187720217174,
            19.978157146382944,
            21.010882093339934,
            22.207718268364214,
            22.589128301880287,
            23.023985207451265,
            24.505974160244772,
            26.031095894042362,
            27.423295097978826
        ]
    },
    "born_effective_charge": {
        "avg_abs_trace": 3.1322712962962966,
        "tensors": [
            [
                [
                    1.44472,
                    -0.00012,
                    -3e-05
                ],
                [
                    0.0,
                    1.31991,
                    0.10493
                ],
                [
                    0.0,
                    -0.02883,
                    1.2227
                ]
            ],
            [
                [
                    1.44472,
                    0.00012,
                    -3e-05
                ],
                [
                    -0.0,
                    1.31973,
                    -0.10479
                ],
                [
                    -0.0,
                    0.02883,
                    1.2227
                ]
            ],
            [
                [
                    5.99975,
                    2.26135,
                    -9e-05
                ],
                [
                    2.09302,
                    6.71911,
                    -0.00033
                ],
                [
                    0.0,
                    -0.0,
                    5.63722
                ]
            ],
            [
                [
                    5.99975,
                    -2.26135,
                    -9e-05
                ],
                [
                    -2.09302,
                    6.71911,
                    -0.00033
                ],
                [
                    0.0,
                    -0.0,
                    5.63722
                ]
            ],
            [
                [
                    6.21694,
                    -1e-05,
                    -0.00026
                ],
                [
                    -0.0,
                    6.52287,
                    -1.48491
                ],
                [
                    0.0,
                    -1.88644,
                    7.20245
                ]
            ],
            [
                [
                    6.21694,
                    1e-05,
                    -0.00026
                ],
                [
                    -0.0,
                    6.52302,
                    1.48417
                ],
                [
                    0.0,
                    1.88644,
                    7.20245
                ]
            ],
            [
                [
                    -0.6048,
                    1e-05,
                    0.00023
                ],
                [
                    0.0,
                    -0.7856,
                    0.23883
                ],
                [
                    -0.0,
                    0.43576,
                    -4.47758
                ]
            ],
            [
                [
                    -3.07097,
                    0.00011,
                    1e-05
                ],
                [
                    -0.0,
                    -2.13305,
                    0.00083
                ],
                [
                    0.0,
                    0.00656,
                    -1.41287
                ]
            ],
            [
                [
                    -2.47921,
                    -1.39023,
                    0.86574
                ],
                [
                    -1.63112,
                    -2.72436,
                    1.29584
                ],
                [
                    1.19972,
                    1.30297,
                    -2.30021
                ]
            ],
            [
                [
                    -2.51329,
                    1.57062,
                    0.32575
                ],
                [
                    1.70242,
                    -3.09674,
                    -0.76715
                ],
                [
                    0.8262,
                    -1.16246,
                    -1.78576
                ]
            ],
            [
                [
                    -2.51365,
                    -1.57034,
                    -0.32556
                ],
                [
                    -1.70242,
                    -3.09674,
                    -0.76715
                ],
                [
                    -0.8262,
                    -1.16246,
                    -1.78576
                ]
            ],
            [
                [
                    -2.47949,
                    1.39027,
                    -0.86579
                ],
                [
                    1.63112,
                    -2.72436,
                    1.29584
                ],
                [
                    -1.19972,
                    1.30297,
                    -2.30021
                ]
            ],
            [
                [
                    -0.6048,
                    -1e-05,
                    0.00023
                ],
                [
                    0.0,
                    -0.78572,
                    -0.23833
                ],
                [
                    -0.0,
                    -0.43576,
                    -4.47758
                ]
            ],
            [
                [
                    -3.07097,
                    -0.00011,
                    1e-05
                ],
                [
                    -0.0,
                    -2.13337,
                    -0.0009
                ],
                [
                    0.0,
                    -0.00656,
                    -1.41287
                ]
            ],
            [
                [
                    -2.51329,
                    -1.57062,
                    0.32575
                ],
                [
                    -1.70237,
                    -3.0972,
                    0.76753
                ],
                [
                    0.8262,
                    1.16246,
                    -1.78576
                ]
            ],
            [
                [
                    -2.47921,
                    1.39023,
                    0.86574
                ],
                [
                    1.63111,
                    -2.7247,
                    -1.2958
                ],
                [
                    1.19972,
                    -1.30297,
                    -2.30021
                ]
            ],
            [
                [
                    -2.47949,
                    -1.39027,
                    -0.86579
                ],
                [
                    -1.63111,
                    -2.7247,
                    -1.2958
                ],
                [
                    -1.19972,
                    -1.30297,
                    -2.30021
                ]
            ],
            [
                [
                    -2.51365,
                    1.57034,
                    -0.32556
                ],
                [
                    1.70237,
                    -3.0972,
                    0.76753
                ],
                [
                    -0.8262,
                    1.16246,
                    -1.78576
                ]
            ]
        ]
    },
    "band_gap": 2.4261999999999997,
    "is_direct": false,
    "formula": "RbSbMoO6"
}