{
    "mp_id": "mp-12355",
    "nelements": 4,
    "nsites": 20,
    "elements": [
        "O",
        "Sr",
        "Ta",
        "Y"
    ],
    "structure": {
        "@module": "pymatgen.core.structure",
        "@class": "Structure",
        "charge": null,
        "lattice": {
            "matrix": [
                [
                    5.7883078,
                    0.0,
                    6.967e-05
                ],
                [
                    0.0,
                    5.87653663,
                    0.0
                ],
                [
                    -5.76090903,
                    0.0,
                    8.22307777
                ]
            ],
            "a": 5.788307800419285,
            "b": 5.87653663,
            "c": 10.040272947654547,
            "alpha": 90.0,
            "beta": 125.01355840193398,
            "gamma": 90.0,
            "volume": 279.7120167104308
        },
        "sites": [
            {
                "species": [
                    {
                        "element": "Sr",
                        "occu": 1
                    }
                ],
                "abc": [
                    0.74120742,
                    0.53816919,
                    0.75051358
                ],
                "xyz": [
                    -0.03330376955575076,
                    3.1625709581724295,
                    6.171583175702068
                ],
                "label": "Sr",
                "properties": {}
            },
            {
                "species": [
                    {
                        "element": "Sr",
                        "occu": 1
                    }
                ],
                "abc": [
                    0.25879258,
                    0.03816919,
                    0.74948642
                ],
                "xyz": [
                    -2.819751975444248,
                    0.2243026431724297,
                    6.163103149297932
                ],
                "label": "Sr",
                "properties": {}
            },
            {
                "species": [
                    {
                        "element": "Sr",
                        "occu": 1
                    }
                ],
                "abc": [
                    0.74120742,
                    0.96183081,
                    0.25051358
                ],
                "xyz": [
                    2.8471507454442486,
                    5.652233986827571,
                    2.060044290702068
                ],
                "label": "Sr",
                "properties": {}
            },
            {
                "species": [
                    {
                        "element": "Sr",
                        "occu": 1
                    }
                ],
                "abc": [
                    0.25879258,
                    0.46183081,
                    0.24948642
                ],
                "xyz": [
                    0.06070253955575167,
                    2.7139656718275704,
                    2.0515642642979315
                ],
                "label": "Sr",
                "properties": {}
            },
            {
                "species": [
                    {
                        "element": "Y",
                        "occu": 1
                    }
                ],
                "abc": [
                    0.0,
                    0.0,
                    0.0
                ],
                "xyz": [
                    0.0,
                    0.0,
                    0.0
                ],
                "label": "Y",
                "properties": {}
            },
            {
                "species": [
                    {
                        "element": "Y",
                        "occu": 1
                    }
                ],
                "abc": [
                    0.0,
                    0.5,
                    0.5
                ],
                "xyz": [
                    -2.880454515,
                    2.938268315,
                    4.111538885
                ],
                "label": "Y",
                "properties": {}
            },
            {
                "species": [
                    {
                        "element": "Ta",
                        "occu": 1
                    }
                ],
                "abc": [
                    0.5,
                    0.5,
                    0.0
                ],
                "xyz": [
                    2.8941539,
                    2.938268315,
                    3.4835e-05
                ],
                "label": "Ta",
                "properties": {}
            },
            {
                "species": [
                    {
                        "element": "Ta",
                        "occu": 1
                    }
                ],
                "abc": [
                    0.5,
                    0.0,
                    0.5
                ],
                "xyz": [
                    0.01369938500000023,
                    0.0,
                    4.11157372
                ],
                "label": "Ta",
                "properties": {}
            },
            {
                "species": [
                    {
                        "element": "O",
                        "occu": 1
                    }
                ],
                "abc": [
                    0.35137272,
                    0.27577598,
                    0.54666305
                ],
                "xyz": [
                    -1.1154226452291254,
                    1.6206076481441474,
                    4.495277254272801
                ],
                "label": "O",
                "properties": {}
            },
            {
                "species": [
                    {
                        "element": "O",
                        "occu": 1
                    }
                ],
                "abc": [
                    0.64862728,
                    0.77577598,
                    0.95333695
                ],
                "xyz": [
                    -1.7376330997708735,
                    4.558875963144148,
                    7.839409070727199
                ],
                "label": "O",
                "properties": {}
            },
            {
                "species": [
                    {
                        "element": "O",
                        "occu": 1
                    }
                ],
                "abc": [
                    0.64862728,
                    0.72422402,
                    0.45333695
                ],
                "xyz": [
                    1.1428214152291258,
                    4.2559289818558526,
                    3.727870185727199
                ],
                "label": "O",
                "properties": {}
            },
            {
                "species": [
                    {
                        "element": "O",
                        "occu": 1
                    }
                ],
                "abc": [
                    0.35137272,
                    0.22422402,
                    0.04666305
                ],
                "xyz": [
                    1.7650318697708747,
                    1.3176606668558526,
                    0.38373836927280086
                ],
                "label": "O",
                "properties": {}
            },
            {
                "species": [
                    {
                        "element": "O",
                        "occu": 1
                    }
                ],
                "abc": [
                    0.26715724,
                    0.80196749,
                    0.54250208
                ],
                "xyz": [
                    -1.5789167953473102,
                    4.712791331054159,
                    4.461055407071672
                ],
                "label": "O",
                "properties": {}
            },
            {
                "species": [
                    {
                        "element": "O",
                        "occu": 1
                    }
                ],
                "abc": [
                    0.73284276,
                    0.30196749,
                    0.95749792
                ],
                "xyz": [
                    -1.2741389496526896,
                    1.7745230160541587,
                    7.8736309179283275
                ],
                "label": "O",
                "properties": {}
            },
            {
                "species": [
                    {
                        "element": "O",
                        "occu": 1
                    }
                ],
                "abc": [
                    0.73284276,
                    0.19803251,
                    0.45749792
                ],
                "xyz": [
                    1.6063155653473107,
                    1.1637452989458414,
                    3.7620920329283276
                ],
                "label": "O",
                "properties": {}
            },
            {
                "species": [
                    {
                        "element": "O",
                        "occu": 1
                    }
                ],
                "abc": [
                    0.26715724,
                    0.69803251,
                    0.04250208
                ],
                "xyz": [
                    1.3015377196526896,
                    4.102013613945841,
                    0.34951652207167233
                ],
                "label": "O",
                "properties": {}
            },
            {
                "species": [
                    {
                        "element": "O",
                        "occu": 1
                    }
                ],
                "abc": [
                    0.81936691,
                    0.97427308,
                    0.73572433
                ],
                "xyz": [
                    0.504306939927198,
                    5.725351442242921,
                    6.0499754681637645
                ],
                "label": "O",
                "properties": {}
            },
            {
                "species": [
                    {
                        "element": "O",
                        "occu": 1
                    }
                ],
                "abc": [
                    0.18063309,
                    0.47427308,
                    0.76427567
                ],
                "xyz": [
                    -3.3573626849271974,
                    2.7870831272429206,
                    6.284710856836235
                ],
                "label": "O",
                "properties": {}
            },
            {
                "species": [
                    {
                        "element": "O",
                        "occu": 1
                    }
                ],
                "abc": [
                    0.18063309,
                    0.02572692,
                    0.26427567
                ],
                "xyz": [
                    -0.476908169927198,
                    0.15118518775707962,
                    2.1731719718362363
                ],
                "label": "O",
                "properties": {}
            },
            {
                "species": [
                    {
                        "element": "O",
                        "occu": 1
                    }
                ],
                "abc": [
                    0.81936691,
                    0.52572692,
                    0.23572433
                ],
                "xyz": [
                    3.3847614549271974,
                    3.0894535027570798,
                    1.9384365831637638
                ],
                "label": "O",
                "properties": {}
            }
        ]
    },
    "spacegroup": {
        "source": "spglib",
        "symbol": "P2_1/c",
        "number": 14,
        "point_group": "2/m",
        "crystal_system": "monoclinic",
        "hall": "-P 2ybc"
    },
    "dielectric": {
        "epsilon_ionic": [
            [
                17.1316096,
                -1e-08,
                0.05934494
            ],
            [
                -1e-08,
                18.32916679,
                1e-08
            ],
            [
                0.05934494,
                1e-08,
                20.68167471
            ]
        ],
        "epsilon_ionic_avg": 18.71415036666667,
        "epsilon_ionic_eig": [
            17.130617832752847,
            20.682666477247146,
            18.329166790000006
        ],
        "epsilon_electronic": [
            [
                4.33604186,
                0.0,
                -0.01140299
            ],
            [
                0.0,
                4.32985464,
                0.0
            ],
            [
                -0.01140597,
                0.0,
                4.29164281
            ]
        ],
        "epsilon_electronic_avg": 4.319179770000001,
        "epsilon_electronic_eig": [
            4.338799920461657,
            4.288884749538343,
            4.32985464
        ]
    },
    "phonon": {
        "lowest_freq": -0.04583550677540367,
        "frequency": [
            -0.04583550677540367,
            -0.01563457723459914,
            -0.014318078696062149,
            2.577074995759109,
            2.8733544198397882,
            3.049552762101278,
            3.06587940350068,
            3.1011625332602986,
            3.322258248081838,
            3.538420870889314,
            3.5657218571671296,
            3.7185025765867077,
            3.7645165239958276,
            3.8137009133214232,
            4.205895399401188,
            4.3029624163357045,
            4.334033274932754,
            4.4364969406670625,
            4.574973190611899,
            4.856709003817049,
            5.394854235006345,
            5.521776543435646,
            6.193113358880905,
            6.216181650039084,
            6.341004293102499,
            6.373077557446181,
            6.552004285042836,
            6.606237383242899,
            6.990393815750749,
            7.273550666460901,
            7.337185706954553,
            7.559000015023463,
            8.0667262673105,
            8.222757813195717,
            8.25357125415881,
            8.967503282652858,
            9.243183441802321,
            9.46594511304213,
            9.7821402034667,
            10.0790093955542,
            10.498998519891817,
            10.97649641215836,
            11.020506163198679,
            11.781989486594775,
            12.14848450100693,
            12.307238793025288,
            12.973134041705913,
            13.11465915924005,
            15.441779897033314,
            15.641478658129355,
            15.773263805786959,
            15.956089459962735,
            16.15883686184319,
            16.21362815021559,
            16.794399397000156,
            16.88718935236289,
            17.0576825052715,
            20.740970133151684,
            22.751173404852384,
            23.156321917852996
        ]
    },
    "born_effective_charge": {
        "avg_abs_trace": 3.1693743333333333,
        "tensors": [
            [
                [
                    2.5401,
                    0.12592,
                    -0.04737
                ],
                [
                    0.14454,
                    2.46794,
                    -0.03032
                ],
                [
                    0.02214,
                    -0.06497,
                    2.41914
                ]
            ],
            [
                [
                    2.54017,
                    -0.12587,
                    -0.04749
                ],
                [
                    -0.14454,
                    2.46794,
                    0.03032
                ],
                [
                    0.02209,
                    0.06498,
                    2.41926
                ]
            ],
            [
                [
                    2.5401,
                    -0.12592,
                    -0.04737
                ],
                [
                    -0.14411,
                    2.46809,
                    0.03039
                ],
                [
                    0.02214,
                    0.06497,
                    2.41914
                ]
            ],
            [
                [
                    2.54017,
                    0.12587,
                    -0.04749
                ],
                [
                    0.14411,
                    2.46809,
                    -0.03039
                ],
                [
                    0.02209,
                    -0.06498,
                    2.41926
                ]
            ],
            [
                [
                    4.42455,
                    -0.30342,
                    0.46347
                ],
                [
                    0.19104,
                    4.45307,
                    0.07595
                ],
                [
                    -0.3287,
                    0.16758,
                    4.43151
                ]
            ],
            [
                [
                    4.42455,
                    0.30342,
                    0.46347
                ],
                [
                    -0.19104,
                    4.45307,
                    -0.07595
                ],
                [
                    -0.3287,
                    -0.16758,
                    4.43151
                ]
            ],
            [
                [
                    6.4633,
                    0.25303,
                    -0.36319
                ],
                [
                    -0.05733,
                    6.44751,
                    0.10421
                ],
                [
                    0.17306,
                    0.14668,
                    6.46597
                ]
            ],
            [
                [
                    6.4633,
                    -0.25303,
                    -0.36319
                ],
                [
                    0.05733,
                    6.44751,
                    -0.10421
                ],
                [
                    0.17306,
                    -0.14668,
                    6.46597
                ]
            ],
            [
                [
                    -2.81231,
                    1.16492,
                    0.14841
                ],
                [
                    1.21393,
                    -3.2749,
                    -0.24586
                ],
                [
                    0.16413,
                    -0.26295,
                    -1.83122
                ]
            ],
            [
                [
                    -2.81237,
                    -1.16485,
                    0.1484
                ],
                [
                    -1.21393,
                    -3.2749,
                    0.24586
                ],
                [
                    0.16416,
                    0.26293,
                    -1.83124
                ]
            ],
            [
                [
                    -2.81237,
                    1.16485,
                    0.1484
                ],
                [
                    1.21433,
                    -3.27475,
                    -0.24554
                ],
                [
                    0.16416,
                    -0.26293,
                    -1.83124
                ]
            ],
            [
                [
                    -2.81231,
                    -1.16492,
                    0.14841
                ],
                [
                    -1.21433,
                    -3.27475,
                    0.24554
                ],
                [
                    0.16413,
                    0.26295,
                    -1.83122
                ]
            ],
            [
                [
                    -3.1969,
                    -1.1946,
                    0.14545
                ],
                [
                    -1.18998,
                    -2.90115,
                    0.0638
                ],
                [
                    0.16948,
                    0.05555,
                    -1.81882
                ]
            ],
            [
                [
                    -3.19686,
                    1.19454,
                    0.14542
                ],
                [
                    1.18998,
                    -2.90115,
                    -0.0638
                ],
                [
                    0.16947,
                    -0.05554,
                    -1.81881
                ]
            ],
            [
                [
                    -3.19686,
                    -1.19454,
                    0.14542
                ],
                [
                    -1.19016,
                    -2.90102,
                    0.06401
                ],
                [
                    0.16947,
                    0.05554,
                    -1.81881
                ]
            ],
            [
                [
                    -3.1969,
                    1.1946,
                    0.14545
                ],
                [
                    1.19016,
                    -2.90102,
                    -0.06401
                ],
                [
                    0.16948,
                    -0.05555,
                    -1.81882
                ]
            ],
            [
                [
                    -1.97483,
                    -0.03753,
                    -0.29655
                ],
                [
                    -0.09096,
                    -1.74235,
                    0.10389
                ],
                [
                    -0.27796,
                    0.09783,
                    -4.2179
                ]
            ],
            [
                [
                    -1.97485,
                    0.03754,
                    -0.29655
                ],
                [
                    0.09096,
                    -1.74235,
                    -0.10389
                ],
                [
                    -0.27788,
                    -0.0978,
                    -4.2179
                ]
            ],
            [
                [
                    -1.97485,
                    -0.03754,
                    -0.29655
                ],
                [
                    -0.09081,
                    -1.74244,
                    0.10371
                ],
                [
                    -0.27788,
                    0.0978,
                    -4.2179
                ]
            ],
            [
                [
                    -1.97483,
                    0.03753,
                    -0.29655
                ],
                [
                    0.09081,
                    -1.74244,
                    -0.10371
                ],
                [
                    -0.27796,
                    -0.09783,
                    -4.2179
                ]
            ]
        ]
    },
    "band_gap": 4.111599999999999,
    "is_direct": false,
    "formula": "Sr2YTaO6"
}