{
    "mp_id": "mp-18779",
    "nelements": 3,
    "nsites": 14,
    "elements": [
        "Cr",
        "Na",
        "O"
    ],
    "structure": {
        "@module": "pymatgen.core.structure",
        "@class": "Structure",
        "charge": null,
        "lattice": {
            "matrix": [
                [
                    2.90954506,
                    -4.56691894,
                    0.0
                ],
                [
                    2.90954506,
                    4.56691894,
                    0.0
                ],
                [
                    0.0,
                    0.0,
                    7.03557902
                ]
            ],
            "a": 5.414997789537972,
            "b": 5.414997789537972,
            "c": 7.03557902,
            "alpha": 90.0,
            "beta": 90.0,
            "gamma": 114.99827198403271,
            "volume": 186.9727137667202
        },
        "sites": [
            {
                "species": [
                    {
                        "element": "Na",
                        "occu": 1
                    }
                ],
                "abc": [
                    0.18319546,
                    0.81680454,
                    0.75
                ],
                "xyz": [
                    2.90954506,
                    2.8936413080079753,
                    5.276684265
                ],
                "label": "Na",
                "properties": {}
            },
            {
                "species": [
                    {
                        "element": "Na",
                        "occu": 1
                    }
                ],
                "abc": [
                    0.81680454,
                    0.18319546,
                    0.25
                ],
                "xyz": [
                    2.90954506,
                    -2.8936413080079753,
                    1.758894755
                ],
                "label": "Na",
                "properties": {}
            },
            {
                "species": [
                    {
                        "element": "Na",
                        "occu": 1
                    }
                ],
                "abc": [
                    0.5,
                    0.5,
                    0.5
                ],
                "xyz": [
                    2.90954506,
                    0.0,
                    3.51778951
                ],
                "label": "Na",
                "properties": {}
            },
            {
                "species": [
                    {
                        "element": "Na",
                        "occu": 1
                    }
                ],
                "abc": [
                    0.5,
                    0.5,
                    0.0
                ],
                "xyz": [
                    2.90954506,
                    0.0,
                    0.0
                ],
                "label": "Na",
                "properties": {}
            },
            {
                "species": [
                    {
                        "element": "Cr",
                        "occu": 1
                    }
                ],
                "abc": [
                    0.85396461,
                    0.14603539,
                    0.75
                ],
                "xyz": [
                    2.90954506,
                    -3.233055362997427,
                    5.276684265
                ],
                "label": "Cr",
                "properties": {}
            },
            {
                "species": [
                    {
                        "element": "Cr",
                        "occu": 1
                    }
                ],
                "abc": [
                    0.14603539,
                    0.85396461,
                    0.25
                ],
                "xyz": [
                    2.90954506,
                    3.233055362997427,
                    1.758894755
                ],
                "label": "Cr",
                "properties": {}
            },
            {
                "species": [
                    {
                        "element": "O",
                        "occu": 1
                    }
                ],
                "abc": [
                    0.25078397,
                    0.74921603,
                    0.06014279
                ],
                "xyz": [
                    2.90954506,
                    2.2762988151172165,
                    0.4231393515282658
                ],
                "label": "O",
                "properties": {}
            },
            {
                "species": [
                    {
                        "element": "O",
                        "occu": 1
                    }
                ],
                "abc": [
                    0.74921603,
                    0.25078397,
                    0.56014279
                ],
                "xyz": [
                    2.90954506,
                    -2.2762988151172165,
                    3.940928861528266
                ],
                "label": "O",
                "properties": {}
            },
            {
                "species": [
                    {
                        "element": "O",
                        "occu": 1
                    }
                ],
                "abc": [
                    0.74921603,
                    0.25078397,
                    0.93985721
                ],
                "xyz": [
                    2.90954506,
                    -2.2762988151172165,
                    6.612439668471734
                ],
                "label": "O",
                "properties": {}
            },
            {
                "species": [
                    {
                        "element": "O",
                        "occu": 1
                    }
                ],
                "abc": [
                    0.25078397,
                    0.74921603,
                    0.43985721
                ],
                "xyz": [
                    2.90954506,
                    2.2762988151172165,
                    3.094650158471734
                ],
                "label": "O",
                "properties": {}
            },
            {
                "species": [
                    {
                        "element": "O",
                        "occu": 1
                    }
                ],
                "abc": [
                    0.19228429,
                    0.27133044,
                    0.75
                ],
                "xyz": [
                    1.3489079474147339,
                    0.3609973595690811,
                    5.276684265
                ],
                "label": "O",
                "properties": {}
            },
            {
                "species": [
                    {
                        "element": "O",
                        "occu": 1
                    }
                ],
                "abc": [
                    0.80771571,
                    0.72866956,
                    0.25
                ],
                "xyz": [
                    4.470182172585266,
                    -0.36099735956908097,
                    1.758894755
                ],
                "label": "O",
                "properties": {}
            },
            {
                "species": [
                    {
                        "element": "O",
                        "occu": 1
                    }
                ],
                "abc": [
                    0.72866956,
                    0.80771571,
                    0.75
                ],
                "xyz": [
                    4.470182172585266,
                    0.36099735956908097,
                    5.276684265
                ],
                "label": "O",
                "properties": {}
            },
            {
                "species": [
                    {
                        "element": "O",
                        "occu": 1
                    }
                ],
                "abc": [
                    0.27133044,
                    0.19228429,
                    0.25
                ],
                "xyz": [
                    1.3489079474147339,
                    -0.3609973595690811,
                    1.758894755
                ],
                "label": "O",
                "properties": {}
            }
        ]
    },
    "spacegroup": {
        "source": "spglib",
        "symbol": "Cmcm",
        "number": 63,
        "point_group": "mmm",
        "crystal_system": "orthorhombic",
        "hall": "-C 2c 2"
    },
    "dielectric": {
        "epsilon_ionic": [
            [
                11.75747507,
                6e-08,
                4.5e-07
            ],
            [
                6e-08,
                3.05005889,
                4e-08
            ],
            [
                4.5e-07,
                4e-08,
                2.09613973
            ]
        ],
        "epsilon_ionic_avg": 5.634557896666666,
        "epsilon_ionic_eig": [
            11.757475070000018,
            2.0961397299999796,
            3.050058890000002
        ],
        "epsilon_electronic": [
            [
                2.886903,
                0.0,
                0.0
            ],
            [
                0.0,
                2.8310231,
                0.0
            ],
            [
                0.0,
                -0.0,
                2.87418794
            ]
        ],
        "epsilon_electronic_avg": 2.8640380133333334,
        "epsilon_electronic_eig": [
            2.886903,
            2.8310231,
            2.87418794
        ]
    },
    "phonon": {
        "lowest_freq": -0.05547757018857718,
        "frequency": [
            -0.05547757018857718,
            -0.05544001212940319,
            -0.051941080905098705,
            1.7111177235057549,
            1.880654450414578,
            2.1550402471326033,
            3.2294992806913703,
            3.385619741137178,
            3.4013457039077015,
            3.527465422384581,
            3.5378206914909227,
            3.6538825060887614,
            4.568997794242873,
            5.012442651246858,
            5.055635064705697,
            5.122463613266998,
            5.158359528386028,
            5.554723353964232,
            5.734026848203408,
            6.533183690727701,
            6.643124323160283,
            6.8875229326945755,
            7.99778820963621,
            8.309955653244076,
            10.226237590005415,
            10.410447082418498,
            10.892595851653926,
            10.93077637381382,
            11.288858196930695,
            11.416738493991362,
            11.49776651901626,
            11.579426299362446,
            12.224747935754973,
            12.327473534759527,
            26.05900081020891,
            26.129035018153132,
            26.649815576327025,
            27.08872623530964,
            28.021993358378996,
            28.027568864407097,
            28.38981193010489,
            29.215943376889797
        ]
    },
    "born_effective_charge": {
        "avg_abs_trace": 1.3957183333333332,
        "tensors": [
            [
                [
                    1.00349,
                    -4e-05,
                    0.0
                ],
                [
                    0.0,
                    1.08405,
                    0.0
                ],
                [
                    -0.0,
                    0.0,
                    1.2234
                ]
            ],
            [
                [
                    1.00349,
                    4e-05,
                    0.0
                ],
                [
                    0.0,
                    1.08408,
                    0.0
                ],
                [
                    -0.0,
                    -0.0,
                    1.2234
                ]
            ],
            [
                [
                    1.42534,
                    0.0,
                    0.0
                ],
                [
                    0.0,
                    1.26962,
                    0.34346
                ],
                [
                    -0.0,
                    -0.25171,
                    1.04934
                ]
            ],
            [
                [
                    1.42534,
                    0.0,
                    0.0
                ],
                [
                    0.0,
                    1.26962,
                    -0.34346
                ],
                [
                    -0.0,
                    0.25171,
                    1.04934
                ]
            ],
            [
                [
                    2.37403,
                    -0.00033,
                    0.0
                ],
                [
                    0.0,
                    2.542,
                    0.0
                ],
                [
                    -0.0,
                    -2e-05,
                    2.68361
                ]
            ],
            [
                [
                    2.37403,
                    0.00033,
                    0.0
                ],
                [
                    0.0,
                    2.54228,
                    0.0
                ],
                [
                    -0.0,
                    2e-05,
                    2.68361
                ]
            ],
            [
                [
                    -0.56165,
                    0.00031,
                    0.0002
                ],
                [
                    0.0,
                    -1.18286,
                    -0.77635
                ],
                [
                    -0.0,
                    -0.95414,
                    -1.89165
                ]
            ],
            [
                [
                    -0.56165,
                    -0.00031,
                    0.0002
                ],
                [
                    0.0,
                    -1.18275,
                    0.77654
                ],
                [
                    -0.0,
                    0.95414,
                    -1.89165
                ]
            ],
            [
                [
                    -0.56165,
                    -0.00031,
                    -0.0002
                ],
                [
                    0.0,
                    -1.18275,
                    -0.77654
                ],
                [
                    -0.0,
                    -0.95448,
                    -1.89245
                ]
            ],
            [
                [
                    -0.56165,
                    0.00031,
                    -0.0002
                ],
                [
                    0.0,
                    -1.18286,
                    0.77635
                ],
                [
                    -0.0,
                    0.95448,
                    -1.89245
                ]
            ],
            [
                [
                    -1.83931,
                    0.8629,
                    0.0
                ],
                [
                    0.78998,
                    -1.26507,
                    0.0
                ],
                [
                    0.0005,
                    -0.00044,
                    -0.58613
                ]
            ],
            [
                [
                    -1.84025,
                    0.86293,
                    0.0
                ],
                [
                    0.78925,
                    -1.26515,
                    -0.0
                ],
                [
                    -0.0005,
                    0.00044,
                    -0.58613
                ]
            ],
            [
                [
                    -1.84025,
                    -0.86293,
                    0.0
                ],
                [
                    -0.78998,
                    -1.26507,
                    0.0
                ],
                [
                    -0.0005,
                    -0.00044,
                    -0.58613
                ]
            ],
            [
                [
                    -1.83931,
                    -0.8629,
                    0.0
                ],
                [
                    -0.78925,
                    -1.26515,
                    -0.0
                ],
                [
                    0.0005,
                    0.00044,
                    -0.58613
                ]
            ]
        ]
    },
    "band_gap": 2.85,
    "is_direct": true,
    "formula": "Na2CrO4"
}