{
    "mp_id": "mp-1705",
    "nelements": 2,
    "nsites": 14,
    "elements": [
        "O",
        "Sb"
    ],
    "structure": {
        "@module": "pymatgen.core.structure",
        "@class": "Structure",
        "charge": null,
        "lattice": {
            "matrix": [
                [
                    6.36088285,
                    -2.41165377,
                    -0.00017141
                ],
                [
                    6.36088285,
                    2.41165377,
                    -0.00017141
                ],
                [
                    -1.29748687,
                    0.0,
                    5.31339892
                ]
            ],
            "a": 6.802713029899228,
            "b": 6.802713029899228,
            "c": 5.469522854955408,
            "alpha": 102.81703332681415,
            "beta": 102.81703332681415,
            "gamma": 41.52726470354717,
            "volume": 163.016632093921
        },
        "sites": [
            {
                "species": [
                    {
                        "element": "Sb",
                        "occu": 1
                    }
                ],
                "abc": [
                    0.10218798,
                    0.62191749,
                    0.71988094
                ],
                "xyz": [
                    3.6719139981009317,
                    1.2534076321717527,
                    3.824890490205972
                ],
                "label": "Sb",
                "properties": {}
            },
            {
                "species": [
                    {
                        "element": "Sb",
                        "occu": 1
                    }
                ],
                "abc": [
                    0.37808251,
                    0.89781202,
                    0.78011906
                ],
                "xyz": [
                    7.103621396899069,
                    1.2534076321717529,
                    4.144865069794028
                ],
                "label": "Sb",
                "properties": {}
            },
            {
                "species": [
                    {
                        "element": "Sb",
                        "occu": 1
                    }
                ],
                "abc": [
                    0.89781202,
                    0.37808251,
                    0.28011906
                ],
                "xyz": [
                    7.752364831899069,
                    -1.2534076321717529,
                    1.488165609794028
                ],
                "label": "Sb",
                "properties": {}
            },
            {
                "species": [
                    {
                        "element": "Sb",
                        "occu": 1
                    }
                ],
                "abc": [
                    0.62191749,
                    0.10218798,
                    0.21988094
                ],
                "xyz": [
                    4.320657433100932,
                    -1.2534076321717527,
                    1.1681910302059721
                ],
                "label": "Sb",
                "properties": {}
            },
            {
                "species": [
                    {
                        "element": "O",
                        "occu": 1
                    }
                ],
                "abc": [
                    0.42517711,
                    0.57482289,
                    0.75
                ],
                "xyz": [
                    5.3877676975,
                    0.36089380950159056,
                    3.9848777799999997
                ],
                "label": "O",
                "properties": {}
            },
            {
                "species": [
                    {
                        "element": "O",
                        "occu": 1
                    }
                ],
                "abc": [
                    0.57482289,
                    0.42517711,
                    0.25
                ],
                "xyz": [
                    6.0365111325,
                    -0.36089380950159056,
                    1.32817832
                ],
                "label": "O",
                "properties": {}
            },
            {
                "species": [
                    {
                        "element": "O",
                        "occu": 1
                    }
                ],
                "abc": [
                    0.01175821,
                    0.19017896,
                    0.94615593
                ],
                "xyz": [
                    0.05687378528289555,
                    0.4302890743837275,
                    5.027269282563286
                ],
                "label": "O",
                "properties": {}
            },
            {
                "species": [
                    {
                        "element": "O",
                        "occu": 1
                    }
                ],
                "abc": [
                    0.80982104,
                    0.98824179,
                    0.55384407
                ],
                "xyz": [
                    10.718661609717106,
                    0.43028907438372754,
                    2.942486277436714
                ],
                "label": "O",
                "properties": {}
            },
            {
                "species": [
                    {
                        "element": "O",
                        "occu": 1
                    }
                ],
                "abc": [
                    0.62250265,
                    0.78289045,
                    0.1239904
                ],
                "xyz": [
                    8.778664951292287,
                    0.38679984253200606,
                    0.6585695590190971
                ],
                "label": "O",
                "properties": {}
            },
            {
                "species": [
                    {
                        "element": "O",
                        "occu": 1
                    }
                ],
                "abc": [
                    0.21710955,
                    0.37749735,
                    0.3760096
                ],
                "xyz": [
                    3.2943573137077133,
                    0.38679984253200606,
                    1.997787080980903
                ],
                "label": "O",
                "properties": {}
            },
            {
                "species": [
                    {
                        "element": "O",
                        "occu": 1
                    }
                ],
                "abc": [
                    0.37749735,
                    0.21710955,
                    0.8760096
                ],
                "xyz": [
                    2.6456138787077133,
                    -0.38679984253200606,
                    4.654486540980903
                ],
                "label": "O",
                "properties": {}
            },
            {
                "species": [
                    {
                        "element": "O",
                        "occu": 1
                    }
                ],
                "abc": [
                    0.78289045,
                    0.62250265,
                    0.6239904
                ],
                "xyz": [
                    8.129921516292288,
                    -0.38679984253200606,
                    3.3152690190190968
                ],
                "label": "O",
                "properties": {}
            },
            {
                "species": [
                    {
                        "element": "O",
                        "occu": 1
                    }
                ],
                "abc": [
                    0.19017896,
                    0.01175821,
                    0.44615593
                ],
                "xyz": [
                    0.7056172202828955,
                    -0.4302890743837275,
                    2.370569822563286
                ],
                "label": "O",
                "properties": {}
            },
            {
                "species": [
                    {
                        "element": "O",
                        "occu": 1
                    }
                ],
                "abc": [
                    0.98824179,
                    0.80982104,
                    0.05384407
                ],
                "xyz": [
                    11.367405044717106,
                    -0.43028907438372754,
                    0.28578681743671414
                ],
                "label": "O",
                "properties": {}
            }
        ]
    },
    "spacegroup": {
        "source": "spglib",
        "symbol": "C2/c",
        "number": 15,
        "point_group": "2/m",
        "crystal_system": "monoclinic",
        "hall": "-C 2yc"
    },
    "dielectric": {
        "epsilon_ionic": [
            [
                10.41694392,
                0.0,
                -1.50214282
            ],
            [
                0.0,
                8.77040934,
                4e-08
            ],
            [
                -1.50214282,
                4e-08,
                8.06669133
            ]
        ],
        "epsilon_ionic_avg": 9.084681529999997,
        "epsilon_ionic_eig": [
            11.149002687042477,
            7.334632562957515,
            8.77040934
        ],
        "epsilon_electronic": [
            [
                5.44624597,
                0.0,
                0.08148001
            ],
            [
                0.0,
                5.52736866,
                0.0
            ],
            [
                0.0814792,
                0.0,
                5.61516521
            ]
        ],
        "epsilon_electronic_avg": 5.52959328,
        "epsilon_electronic_eig": [
            5.413349919317512,
            5.648061260682487,
            5.52736866
        ]
    },
    "phonon": {
        "lowest_freq": -0.0344196683628611,
        "frequency": [
            -0.0344196683628611,
            -0.023499554305953758,
            -0.01705744029103435,
            3.351171324970418,
            3.4385452191288306,
            4.044903693956307,
            5.184347797845838,
            5.256358654327546,
            5.612640685851525,
            6.033700906627772,
            6.164810034434506,
            6.165703038923097,
            6.442152548056911,
            6.8546317618190535,
            7.615773940237643,
            8.09561220941121,
            8.237807236909633,
            8.892382535683835,
            9.177239245089327,
            9.249393617646705,
            9.626389553137589,
            11.769370181110505,
            12.113384788343689,
            12.775431931965729,
            13.12823319616897,
            13.239532086259464,
            13.999756241854737,
            14.263524566479493,
            14.364366707730566,
            14.390985792674696,
            14.587257288531127,
            15.093203076764546,
            15.84751694662373,
            16.94830777342049,
            17.171017570682825,
            19.019027192902506,
            21.373832199129442,
            22.509346790167296,
            22.98233574410039,
            23.272709814223496,
            24.923700491978256,
            25.029304402130904
        ]
    },
    "born_effective_charge": {
        "avg_abs_trace": 2.8932709523809526,
        "tensors": [
            [
                [
                    5.17841,
                    -0.25347,
                    -0.01725
                ],
                [
                    0.61514,
                    4.94435,
                    0.34957
                ],
                [
                    -0.03755,
                    -1.05737,
                    5.06687
                ]
            ],
            [
                [
                    5.1788,
                    0.25338,
                    -0.01712
                ],
                [
                    -0.61514,
                    4.94435,
                    -0.34957
                ],
                [
                    -0.03678,
                    1.05872,
                    5.06661
                ]
            ],
            [
                [
                    5.1788,
                    -0.25338,
                    -0.01712
                ],
                [
                    0.61515,
                    4.94431,
                    0.34971
                ],
                [
                    -0.03678,
                    -1.05872,
                    5.06661
                ]
            ],
            [
                [
                    5.17841,
                    0.25347,
                    -0.01725
                ],
                [
                    -0.61515,
                    4.94431,
                    -0.34971
                ],
                [
                    -0.03755,
                    1.05737,
                    5.06687
                ]
            ],
            [
                [
                    -3.23439,
                    0.00028,
                    -0.19845
                ],
                [
                    -0.0,
                    -1.26166,
                    0.0
                ],
                [
                    -0.27981,
                    -0.00039,
                    -1.22253
                ]
            ],
            [
                [
                    -3.23439,
                    -0.00028,
                    -0.19845
                ],
                [
                    0.0,
                    -1.26166,
                    0.0
                ],
                [
                    -0.27981,
                    0.00039,
                    -1.22253
                ]
            ],
            [
                [
                    -1.30235,
                    0.24631,
                    0.27712
                ],
                [
                    0.23177,
                    -1.99009,
                    -0.78936
                ],
                [
                    0.19919,
                    -0.89423,
                    -2.2653
                ]
            ],
            [
                [
                    -1.30209,
                    -0.24607,
                    0.277
                ],
                [
                    -0.23177,
                    -1.99009,
                    0.78936
                ],
                [
                    0.19939,
                    0.89352,
                    -2.2656
                ]
            ],
            [
                [
                    -2.25909,
                    -0.72731,
                    -0.16067
                ],
                [
                    -0.71987,
                    -2.32342,
                    0.78301
                ],
                [
                    -0.0222,
                    0.50624,
                    -2.19027
                ]
            ],
            [
                [
                    -2.25929,
                    0.72765,
                    -0.16064
                ],
                [
                    0.71987,
                    -2.32342,
                    -0.78301
                ],
                [
                    -0.02223,
                    -0.50651,
                    -2.18977
                ]
            ],
            [
                [
                    -2.25929,
                    -0.72765,
                    -0.16064
                ],
                [
                    -0.71992,
                    -2.3234,
                    0.78308
                ],
                [
                    -0.02223,
                    0.50651,
                    -2.18977
                ]
            ],
            [
                [
                    -2.25909,
                    0.72731,
                    -0.16067
                ],
                [
                    0.71992,
                    -2.3234,
                    -0.78308
                ],
                [
                    -0.0222,
                    -0.50624,
                    -2.19027
                ]
            ],
            [
                [
                    -1.30235,
                    -0.24631,
                    0.27712
                ],
                [
                    -0.23194,
                    -1.99009,
                    0.78937
                ],
                [
                    0.19919,
                    0.89423,
                    -2.2653
                ]
            ],
            [
                [
                    -1.30209,
                    0.24607,
                    0.277
                ],
                [
                    0.23194,
                    -1.99009,
                    -0.78937
                ],
                [
                    0.19939,
                    -0.89352,
                    -2.2656
                ]
            ]
        ]
    },
    "band_gap": 0.5993999999999993,
    "is_direct": false,
    "formula": "Sb2O5"
}