{
    "mp_id": "mp-17891",
    "nelements": 4,
    "nsites": 28,
    "elements": [
        "Na",
        "O",
        "Si",
        "Y"
    ],
    "structure": {
        "@module": "pymatgen.core.structure",
        "@class": "Structure",
        "charge": null,
        "lattice": {
            "matrix": [
                [
                    11.13029802,
                    0.0,
                    0.0
                ],
                [
                    0.0,
                    6.38036424,
                    0.0
                ],
                [
                    0.0,
                    0.0,
                    5.10375817
                ]
            ],
            "a": 11.13029802,
            "b": 6.38036424,
            "c": 5.10375817,
            "alpha": 90.0,
            "beta": 90.0,
            "gamma": 90.0,
            "volume": 362.4452006619458
        },
        "sites": [
            {
                "species": [
                    {
                        "element": "Na",
                        "occu": 1
                    }
                ],
                "abc": [
                    0.0,
                    0.5,
                    0.5
                ],
                "xyz": [
                    0.0,
                    3.19018212,
                    2.551879085
                ],
                "label": "Na",
                "properties": {}
            },
            {
                "species": [
                    {
                        "element": "Na",
                        "occu": 1
                    }
                ],
                "abc": [
                    0.0,
                    0.0,
                    0.5
                ],
                "xyz": [
                    0.0,
                    0.0,
                    2.551879085
                ],
                "label": "Na",
                "properties": {}
            },
            {
                "species": [
                    {
                        "element": "Na",
                        "occu": 1
                    }
                ],
                "abc": [
                    0.5,
                    0.0,
                    0.0
                ],
                "xyz": [
                    5.56514901,
                    0.0,
                    0.0
                ],
                "label": "Na",
                "properties": {}
            },
            {
                "species": [
                    {
                        "element": "Na",
                        "occu": 1
                    }
                ],
                "abc": [
                    0.5,
                    0.5,
                    0.0
                ],
                "xyz": [
                    5.56514901,
                    3.19018212,
                    0.0
                ],
                "label": "Na",
                "properties": {}
            },
            {
                "species": [
                    {
                        "element": "Y",
                        "occu": 1
                    }
                ],
                "abc": [
                    0.27974642,
                    0.25,
                    0.4995844
                ],
                "xyz": [
                    3.1136610246280885,
                    1.59509106,
                    2.5497579631045477
                ],
                "label": "Y",
                "properties": {}
            },
            {
                "species": [
                    {
                        "element": "Y",
                        "occu": 1
                    }
                ],
                "abc": [
                    0.72025358,
                    0.75,
                    0.5004156
                ],
                "xyz": [
                    8.016636995371911,
                    4.78527318,
                    2.5540002068954517
                ],
                "label": "Y",
                "properties": {}
            },
            {
                "species": [
                    {
                        "element": "Y",
                        "occu": 1
                    }
                ],
                "abc": [
                    0.77974642,
                    0.25,
                    0.0004156
                ],
                "xyz": [
                    8.67881003462809,
                    1.59509106,
                    0.002121121895452
                ],
                "label": "Y",
                "properties": {}
            },
            {
                "species": [
                    {
                        "element": "Y",
                        "occu": 1
                    }
                ],
                "abc": [
                    0.22025358,
                    0.75,
                    0.9995844
                ],
                "xyz": [
                    2.4514879853719114,
                    4.78527318,
                    5.101637048104548
                ],
                "label": "Y",
                "properties": {}
            },
            {
                "species": [
                    {
                        "element": "Si",
                        "occu": 1
                    }
                ],
                "abc": [
                    0.40161541,
                    0.75,
                    0.56217094
                ],
                "xyz": [
                    4.470099202724488,
                    4.78527318,
                    2.86918452796158
                ],
                "label": "Si",
                "properties": {}
            },
            {
                "species": [
                    {
                        "element": "Si",
                        "occu": 1
                    }
                ],
                "abc": [
                    0.90161541,
                    0.75,
                    0.93782906
                ],
                "xyz": [
                    10.035248212724488,
                    4.78527318,
                    4.78645272703842
                ],
                "label": "Si",
                "properties": {}
            },
            {
                "species": [
                    {
                        "element": "Si",
                        "occu": 1
                    }
                ],
                "abc": [
                    0.59838459,
                    0.25,
                    0.43782906
                ],
                "xyz": [
                    6.6601988172755116,
                    1.59509106,
                    2.23457364203842
                ],
                "label": "Si",
                "properties": {}
            },
            {
                "species": [
                    {
                        "element": "Si",
                        "occu": 1
                    }
                ],
                "abc": [
                    0.09838459,
                    0.25,
                    0.06217094
                ],
                "xyz": [
                    1.0950498072755117,
                    1.59509106,
                    0.3173054429615798
                ],
                "label": "Si",
                "properties": {}
            },
            {
                "species": [
                    {
                        "element": "O",
                        "occu": 1
                    }
                ],
                "abc": [
                    0.11115062,
                    0.25,
                    0.74577383
                ],
                "xyz": [
                    1.2371395257077724,
                    1.59509106,
                    3.806249277834691
                ],
                "label": "O",
                "properties": {}
            },
            {
                "species": [
                    {
                        "element": "O",
                        "occu": 1
                    }
                ],
                "abc": [
                    0.88884938,
                    0.75,
                    0.25422617
                ],
                "xyz": [
                    9.893158494292228,
                    4.78527318,
                    1.2975088921653086
                ],
                "label": "O",
                "properties": {}
            },
            {
                "species": [
                    {
                        "element": "O",
                        "occu": 1
                    }
                ],
                "abc": [
                    0.61115062,
                    0.25,
                    0.75422617
                ],
                "xyz": [
                    6.802288535707772,
                    1.59509106,
                    3.849387977165309
                ],
                "label": "O",
                "properties": {}
            },
            {
                "species": [
                    {
                        "element": "O",
                        "occu": 1
                    }
                ],
                "abc": [
                    0.38884938,
                    0.75,
                    0.24577383
                ],
                "xyz": [
                    4.328009484292227,
                    4.78527318,
                    1.254370192834691
                ],
                "label": "O",
                "properties": {}
            },
            {
                "species": [
                    {
                        "element": "O",
                        "occu": 1
                    }
                ],
                "abc": [
                    0.03933141,
                    0.75,
                    0.82782084
                ],
                "xyz": [
                    0.4377703148468082,
                    4.78527318,
                    4.224997375446263
                ],
                "label": "O",
                "properties": {}
            },
            {
                "species": [
                    {
                        "element": "O",
                        "occu": 1
                    }
                ],
                "abc": [
                    0.96066859,
                    0.25,
                    0.17217916
                ],
                "xyz": [
                    10.692527705153193,
                    1.59509106,
                    0.8787607945537371
                ],
                "label": "O",
                "properties": {}
            },
            {
                "species": [
                    {
                        "element": "O",
                        "occu": 1
                    }
                ],
                "abc": [
                    0.53933141,
                    0.75,
                    0.67217916
                ],
                "xyz": [
                    6.002919324846808,
                    4.78527318,
                    3.430639879553737
                ],
                "label": "O",
                "properties": {}
            },
            {
                "species": [
                    {
                        "element": "O",
                        "occu": 1
                    }
                ],
                "abc": [
                    0.46066859,
                    0.25,
                    0.32782084
                ],
                "xyz": [
                    5.127378695153191,
                    1.59509106,
                    1.6731182904462627
                ],
                "label": "O",
                "properties": {}
            },
            {
                "species": [
                    {
                        "element": "O",
                        "occu": 1
                    }
                ],
                "abc": [
                    0.32937756,
                    0.55023252,
                    0.7037713
                ],
                "xyz": [
                    3.6660704039004313,
                    3.5106838942930847,
                    3.591878522186521
                ],
                "label": "O",
                "properties": {}
            },
            {
                "species": [
                    {
                        "element": "O",
                        "occu": 1
                    }
                ],
                "abc": [
                    0.67062244,
                    0.05023252,
                    0.2962287
                ],
                "xyz": [
                    7.464227616099569,
                    0.3205017742930848,
                    1.511879647813479
                ],
                "label": "O",
                "properties": {}
            },
            {
                "species": [
                    {
                        "element": "O",
                        "occu": 1
                    }
                ],
                "abc": [
                    0.82937756,
                    0.55023252,
                    0.7962287
                ],
                "xyz": [
                    9.23121941390043,
                    3.5106838942930847,
                    4.063758732813479
                ],
                "label": "O",
                "properties": {}
            },
            {
                "species": [
                    {
                        "element": "O",
                        "occu": 1
                    }
                ],
                "abc": [
                    0.17062244,
                    0.05023252,
                    0.2037713
                ],
                "xyz": [
                    1.8990786060995686,
                    0.3205017742930848,
                    1.0399994371865209
                ],
                "label": "O",
                "properties": {}
            },
            {
                "species": [
                    {
                        "element": "O",
                        "occu": 1
                    }
                ],
                "abc": [
                    0.17062244,
                    0.44976748,
                    0.2037713
                ],
                "xyz": [
                    1.8990786060995686,
                    2.869680345706915,
                    1.0399994371865209
                ],
                "label": "O",
                "properties": {}
            },
            {
                "species": [
                    {
                        "element": "O",
                        "occu": 1
                    }
                ],
                "abc": [
                    0.82937756,
                    0.94976748,
                    0.7962287
                ],
                "xyz": [
                    9.23121941390043,
                    6.059862465706915,
                    4.063758732813479
                ],
                "label": "O",
                "properties": {}
            },
            {
                "species": [
                    {
                        "element": "O",
                        "occu": 1
                    }
                ],
                "abc": [
                    0.67062244,
                    0.44976748,
                    0.2962287
                ],
                "xyz": [
                    7.464227616099569,
                    2.869680345706915,
                    1.511879647813479
                ],
                "label": "O",
                "properties": {}
            },
            {
                "species": [
                    {
                        "element": "O",
                        "occu": 1
                    }
                ],
                "abc": [
                    0.32937756,
                    0.94976748,
                    0.7037713
                ],
                "xyz": [
                    3.6660704039004313,
                    6.059862465706915,
                    3.591878522186521
                ],
                "label": "O",
                "properties": {}
            }
        ]
    },
    "spacegroup": {
        "source": "spglib",
        "symbol": "Pnma",
        "number": 62,
        "point_group": "mmm",
        "crystal_system": "orthorhombic",
        "hall": "-P 2ac 2n"
    },
    "dielectric": {
        "epsilon_ionic": [
            [
                5.28139397,
                -1e-08,
                1e-08
            ],
            [
                -1e-08,
                5.96222806,
                -3e-08
            ],
            [
                1e-08,
                -3e-08,
                4.02114596
            ]
        ],
        "epsilon_ionic_avg": 5.088255996666667,
        "epsilon_ionic_eig": [
            5.281393969999997,
            5.962228060000004,
            4.02114596
        ],
        "epsilon_electronic": [
            [
                3.12812872,
                0.0,
                0.0
            ],
            [
                0.0,
                3.06881001,
                -0.0
            ],
            [
                0.0,
                -0.0,
                2.93405542
            ]
        ],
        "epsilon_electronic_avg": 3.0436647166666666,
        "epsilon_electronic_eig": [
            3.12812872,
            3.06881001,
            2.93405542
        ]
    },
    "phonon": {
        "lowest_freq": -0.040293670865985766,
        "frequency": [
            -0.040293670865985766,
            -0.03389582692606263,
            -0.015303703338120514,
            2.635926562630528,
            2.7643925835598804,
            3.122778962098399,
            3.848703413802073,
            4.3053698975049635,
            4.31996361973455,
            4.400917420718863,
            4.456387733403231,
            4.610778811112113,
            4.635726213546676,
            4.878119234770258,
            5.143298314881022,
            5.225802509231443,
            5.284112387963804,
            5.297942795022677,
            5.299392844241303,
            5.391014618297397,
            5.506934025790733,
            5.557195042199323,
            5.820379973270677,
            6.024056169932777,
            6.3992295223440685,
            6.472525967238044,
            6.485333649875991,
            6.62588273098315,
            6.781290261208278,
            6.787313102038464,
            6.865937826805272,
            7.345880373528291,
            7.653278148110153,
            7.903524126677195,
            7.926669709076767,
            7.970156925816331,
            8.266866417015967,
            8.53314533828827,
            8.57387281187484,
            8.702775547499355,
            9.001815777227613,
            9.245799407320987,
            9.272309934078239,
            9.36669098202655,
            9.513130119339554,
            9.67347191751699,
            9.76107398841398,
            9.967000563733846,
            11.527945610501579,
            11.819701080756966,
            11.893650447033393,
            12.069166746477178,
            12.123241837385855,
            12.454148904886058,
            13.047643170006877,
            13.31446044394599,
            13.423422621360679,
            13.435500393811076,
            14.931492848740072,
            14.957269086897508,
            14.990680456120776,
            15.331840804571856,
            15.37795975904264,
            15.993779709808342,
            16.50817732168752,
            16.580046635249065,
            17.562726167679493,
            18.17963692514051,
            23.525512915022475,
            23.672087384743662,
            23.794970706002484,
            23.963312924109356,
            24.291245895344492,
            24.335252546271025,
            24.4786869225417,
            24.813431594776166,
            26.34243126586911,
            26.43770849240125,
            26.953174179906142,
            27.539297110698435,
            27.98959356491568,
            28.404743111437092,
            28.762478244961112,
            30.40539180546963
        ]
    },
    "born_effective_charge": {
        "avg_abs_trace": 2.2079364285714287,
        "tensors": [
            [
                [
                    1.05222,
                    -0.11781,
                    0.01308
                ],
                [
                    -0.09339,
                    0.95723,
                    0.04191
                ],
                [
                    -0.01511,
                    0.05527,
                    1.13539
                ]
            ],
            [
                [
                    1.05222,
                    0.11781,
                    0.01308
                ],
                [
                    0.09339,
                    0.95723,
                    -0.04191
                ],
                [
                    -0.01511,
                    -0.05527,
                    1.13539
                ]
            ],
            [
                [
                    1.05222,
                    0.11781,
                    -0.01308
                ],
                [
                    0.09339,
                    0.95723,
                    0.04191
                ],
                [
                    0.01511,
                    0.05527,
                    1.13539
                ]
            ],
            [
                [
                    1.05222,
                    -0.11781,
                    -0.01308
                ],
                [
                    -0.09339,
                    0.95723,
                    -0.04191
                ],
                [
                    0.01511,
                    -0.05527,
                    1.13539
                ]
            ],
            [
                [
                    3.86016,
                    -0.0,
                    -0.1651
                ],
                [
                    8e-05,
                    3.89685,
                    5e-05
                ],
                [
                    -0.0234,
                    0.0,
                    3.28415
                ]
            ],
            [
                [
                    3.86046,
                    -0.0,
                    -0.165
                ],
                [
                    -8e-05,
                    3.89685,
                    -5e-05
                ],
                [
                    -0.02318,
                    0.0,
                    3.28508
                ]
            ],
            [
                [
                    3.86016,
                    -0.0,
                    0.1651
                ],
                [
                    8e-05,
                    3.89685,
                    -5e-05
                ],
                [
                    0.02318,
                    0.0,
                    3.28508
                ]
            ],
            [
                [
                    3.86046,
                    -0.0,
                    0.165
                ],
                [
                    -8e-05,
                    3.89685,
                    5e-05
                ],
                [
                    0.0234,
                    0.0,
                    3.28415
                ]
            ],
            [
                [
                    3.29013,
                    -0.0,
                    0.20795
                ],
                [
                    -0.0,
                    2.85328,
                    -2e-05
                ],
                [
                    -0.16199,
                    0.0,
                    2.85333
                ]
            ],
            [
                [
                    3.29013,
                    -0.0,
                    -0.20795
                ],
                [
                    -0.0,
                    2.85328,
                    2e-05
                ],
                [
                    0.16191,
                    0.0,
                    2.85334
                ]
            ],
            [
                [
                    3.29009,
                    -0.0,
                    0.20787
                ],
                [
                    0.0,
                    2.85328,
                    2e-05
                ],
                [
                    -0.16191,
                    0.0,
                    2.85334
                ]
            ],
            [
                [
                    3.29009,
                    -0.0,
                    -0.20787
                ],
                [
                    0.0,
                    2.85328,
                    -2e-05
                ],
                [
                    0.16199,
                    0.0,
                    2.85333
                ]
            ],
            [
                [
                    -1.82956,
                    -0.0,
                    0.54044
                ],
                [
                    -5e-05,
                    -1.28725,
                    -4e-05
                ],
                [
                    0.54086,
                    0.0,
                    -2.38538
                ]
            ],
            [
                [
                    -1.82961,
                    -0.0,
                    0.5405
                ],
                [
                    5e-05,
                    -1.28725,
                    4e-05
                ],
                [
                    0.54066,
                    0.0,
                    -2.38589
                ]
            ],
            [
                [
                    -1.82956,
                    -0.0,
                    -0.54044
                ],
                [
                    -5e-05,
                    -1.28725,
                    4e-05
                ],
                [
                    -0.54066,
                    0.0,
                    -2.38589
                ]
            ],
            [
                [
                    -1.82961,
                    -0.0,
                    -0.5405
                ],
                [
                    5e-05,
                    -1.28725,
                    -4e-05
                ],
                [
                    -0.54086,
                    0.0,
                    -2.38538
                ]
            ],
            [
                [
                    -3.0889,
                    -0.0,
                    -0.04729
                ],
                [
                    0.00012,
                    -1.34267,
                    -0.0
                ],
                [
                    -0.11968,
                    0.0,
                    -1.34783
                ]
            ],
            [
                [
                    -3.08882,
                    -0.0,
                    -0.04738
                ],
                [
                    -0.00012,
                    -1.34267,
                    0.0
                ],
                [
                    -0.11915,
                    0.0,
                    -1.34794
                ]
            ],
            [
                [
                    -3.0889,
                    -0.0,
                    0.04729
                ],
                [
                    0.00012,
                    -1.34267,
                    0.0
                ],
                [
                    0.11915,
                    0.0,
                    -1.34794
                ]
            ],
            [
                [
                    -3.08882,
                    -0.0,
                    0.04738
                ],
                [
                    -0.00012,
                    -1.34267,
                    -0.0
                ],
                [
                    0.11968,
                    0.0,
                    -1.34783
                ]
            ],
            [
                [
                    -1.64211,
                    -0.28798,
                    0.3331
                ],
                [
                    -0.31226,
                    -2.53864,
                    -0.32453
                ],
                [
                    0.39978,
                    -0.26752,
                    -1.76979
                ]
            ],
            [
                [
                    -1.64208,
                    0.288,
                    0.33321
                ],
                [
                    0.31226,
                    -2.53864,
                    0.32453
                ],
                [
                    0.39991,
                    0.26727,
                    -1.77002
                ]
            ],
            [
                [
                    -1.64211,
                    -0.28798,
                    -0.3331
                ],
                [
                    -0.31226,
                    -2.53864,
                    0.32453
                ],
                [
                    -0.39991,
                    0.26727,
                    -1.77002
                ]
            ],
            [
                [
                    -1.64208,
                    0.288,
                    -0.33321
                ],
                [
                    0.31226,
                    -2.53864,
                    -0.32453
                ],
                [
                    -0.39978,
                    -0.26752,
                    -1.76979
                ]
            ],
            [
                [
                    -1.64208,
                    -0.288,
                    -0.33321
                ],
                [
                    -0.31234,
                    -2.5388,
                    0.32459
                ],
                [
                    -0.39978,
                    0.26752,
                    -1.76979
                ]
            ],
            [
                [
                    -1.64211,
                    0.28798,
                    -0.3331
                ],
                [
                    0.31234,
                    -2.5388,
                    -0.32459
                ],
                [
                    -0.39991,
                    -0.26727,
                    -1.77002
                ]
            ],
            [
                [
                    -1.64208,
                    -0.288,
                    0.33321
                ],
                [
                    -0.31234,
                    -2.5388,
                    -0.32459
                ],
                [
                    0.39991,
                    -0.26727,
                    -1.77002
                ]
            ],
            [
                [
                    -1.64211,
                    0.28798,
                    0.3331
                ],
                [
                    0.31234,
                    -2.5388,
                    0.32459
                ],
                [
                    0.39978,
                    0.26752,
                    -1.76979
                ]
            ]
        ]
    },
    "band_gap": 4.363300000000001,
    "is_direct": false,
    "formula": "NaYSiO4"
}