{
    "mp_id": "mp-14368",
    "nelements": 3,
    "nsites": 28,
    "elements": [
        "As",
        "O",
        "Sb"
    ],
    "structure": {
        "@module": "pymatgen.core.structure",
        "@class": "Structure",
        "charge": null,
        "lattice": {
            "matrix": [
                [
                    4.93489896,
                    0.0,
                    0.0
                ],
                [
                    0.0,
                    8.82163172,
                    0.0
                ],
                [
                    0.0,
                    0.0,
                    9.25119819
                ]
            ],
            "a": 4.93489896,
            "b": 8.82163172,
            "c": 9.25119819,
            "alpha": 90.0,
            "beta": 90.0,
            "gamma": 90.0,
            "volume": 402.7403779420637
        },
        "sites": [
            {
                "species": [
                    {
                        "element": "Sb",
                        "occu": 1
                    }
                ],
                "abc": [
                    0.88280029,
                    0.65268922,
                    0.10271507
                ],
                "xyz": [
                    4.356530233008699,
                    5.757783926454057,
                    0.9502374696697233
                ],
                "label": "Sb",
                "properties": {}
            },
            {
                "species": [
                    {
                        "element": "Sb",
                        "occu": 1
                    }
                ],
                "abc": [
                    0.38280029,
                    0.84731078,
                    0.89728493
                ],
                "xyz": [
                    1.8890807530086984,
                    7.474663653545941,
                    8.300960720330277
                ],
                "label": "Sb",
                "properties": {}
            },
            {
                "species": [
                    {
                        "element": "Sb",
                        "occu": 1
                    }
                ],
                "abc": [
                    0.11719971,
                    0.15268922,
                    0.39728493
                ],
                "xyz": [
                    0.5783687269913016,
                    1.3469680664540582,
                    3.6753616253302765
                ],
                "label": "Sb",
                "properties": {}
            },
            {
                "species": [
                    {
                        "element": "Sb",
                        "occu": 1
                    }
                ],
                "abc": [
                    0.61719971,
                    0.34731078,
                    0.60271507
                ],
                "xyz": [
                    3.0458182069913016,
                    3.0638477935459414,
                    5.575836564669723
                ],
                "label": "Sb",
                "properties": {}
            },
            {
                "species": [
                    {
                        "element": "As",
                        "occu": 1
                    }
                ],
                "abc": [
                    0.89334414,
                    0.02848432,
                    0.71164367
                ],
                "xyz": [
                    4.408563067408094,
                    0.2512781808346304,
                    6.583556631828957
                ],
                "label": "As",
                "properties": {}
            },
            {
                "species": [
                    {
                        "element": "As",
                        "occu": 1
                    }
                ],
                "abc": [
                    0.39334414,
                    0.47151568,
                    0.28835633
                ],
                "xyz": [
                    1.9411135874080945,
                    4.1595376791653695,
                    2.667641558171043
                ],
                "label": "As",
                "properties": {}
            },
            {
                "species": [
                    {
                        "element": "As",
                        "occu": 1
                    }
                ],
                "abc": [
                    0.10665586,
                    0.52848432,
                    0.78835633
                ],
                "xyz": [
                    0.5263358925919056,
                    4.66209404083463,
                    7.293240653171043
                ],
                "label": "As",
                "properties": {}
            },
            {
                "species": [
                    {
                        "element": "As",
                        "occu": 1
                    }
                ],
                "abc": [
                    0.60665586,
                    0.97151568,
                    0.21164367
                ],
                "xyz": [
                    2.9937853725919057,
                    8.57035353916537,
                    1.9579575368289575
                ],
                "label": "As",
                "properties": {}
            },
            {
                "species": [
                    {
                        "element": "O",
                        "occu": 1
                    }
                ],
                "abc": [
                    0.05277956,
                    0.49926535,
                    0.9699966
                ],
                "xyz": [
                    0.2604617957532576,
                    4.404335048256901,
                    8.973630790226155
                ],
                "label": "O",
                "properties": {}
            },
            {
                "species": [
                    {
                        "element": "O",
                        "occu": 1
                    }
                ],
                "abc": [
                    0.55277956,
                    0.00073465,
                    0.0300034
                ],
                "xyz": [
                    2.7279112757532573,
                    0.006480811743097999,
                    0.277567399773846
                ],
                "label": "O",
                "properties": {}
            },
            {
                "species": [
                    {
                        "element": "O",
                        "occu": 1
                    }
                ],
                "abc": [
                    0.94722044,
                    0.99926535,
                    0.5300034
                ],
                "xyz": [
                    4.674437164246743,
                    8.815150908256902,
                    4.9031664947738465
                ],
                "label": "O",
                "properties": {}
            },
            {
                "species": [
                    {
                        "element": "O",
                        "occu": 1
                    }
                ],
                "abc": [
                    0.44722044,
                    0.50073465,
                    0.4699966
                ],
                "xyz": [
                    2.206987684246742,
                    4.417296671743097,
                    4.348031695226154
                ],
                "label": "O",
                "properties": {}
            },
            {
                "species": [
                    {
                        "element": "O",
                        "occu": 1
                    }
                ],
                "abc": [
                    0.22258297,
                    0.70702443,
                    0.74711415
                ],
                "xyz": [
                    1.0984244671667112,
                    6.23710913850292,
                    6.911701072203389
                ],
                "label": "O",
                "properties": {}
            },
            {
                "species": [
                    {
                        "element": "O",
                        "occu": 1
                    }
                ],
                "abc": [
                    0.72258297,
                    0.79297557,
                    0.25288585
                ],
                "xyz": [
                    3.5658739471667116,
                    6.995338441497079,
                    2.3394971177966117
                ],
                "label": "O",
                "properties": {}
            },
            {
                "species": [
                    {
                        "element": "O",
                        "occu": 1
                    }
                ],
                "abc": [
                    0.77741703,
                    0.20702443,
                    0.75288585
                ],
                "xyz": [
                    3.8364744928332883,
                    1.8262932785029196,
                    6.965096212796611
                ],
                "label": "O",
                "properties": {}
            },
            {
                "species": [
                    {
                        "element": "O",
                        "occu": 1
                    }
                ],
                "abc": [
                    0.27741703,
                    0.29297557,
                    0.24711415
                ],
                "xyz": [
                    1.3690250128332888,
                    2.5845225814970805,
                    2.286101977203389
                ],
                "label": "O",
                "properties": {}
            },
            {
                "species": [
                    {
                        "element": "O",
                        "occu": 1
                    }
                ],
                "abc": [
                    0.925921,
                    0.32812345,
                    0.472462
                ],
                "xyz": [
                    4.56932657994216,
                    2.8945842345958335,
                    4.37083959924378
                ],
                "label": "O",
                "properties": {}
            },
            {
                "species": [
                    {
                        "element": "O",
                        "occu": 1
                    }
                ],
                "abc": [
                    0.425921,
                    0.17187655,
                    0.527538
                ],
                "xyz": [
                    2.10187709994216,
                    1.5162316254041657,
                    4.880358590756219
                ],
                "label": "O",
                "properties": {}
            },
            {
                "species": [
                    {
                        "element": "O",
                        "occu": 1
                    }
                ],
                "abc": [
                    0.074079,
                    0.82812345,
                    0.027538
                ],
                "xyz": [
                    0.36557238005784004,
                    7.305400094595833,
                    0.25475949575622
                ],
                "label": "O",
                "properties": {}
            },
            {
                "species": [
                    {
                        "element": "O",
                        "occu": 1
                    }
                ],
                "abc": [
                    0.574079,
                    0.67187655,
                    0.972462
                ],
                "xyz": [
                    2.83302186005784,
                    5.927047485404166,
                    8.99643869424378
                ],
                "label": "O",
                "properties": {}
            },
            {
                "species": [
                    {
                        "element": "O",
                        "occu": 1
                    }
                ],
                "abc": [
                    0.18052397,
                    0.61710038,
                    0.24633051
                ],
                "xyz": [
                    0.8908675518080712,
                    5.443832286632053,
                    2.278852368253777
                ],
                "label": "O",
                "properties": {}
            },
            {
                "species": [
                    {
                        "element": "O",
                        "occu": 1
                    }
                ],
                "abc": [
                    0.68052397,
                    0.88289962,
                    0.75366949
                ],
                "xyz": [
                    3.358317031808071,
                    7.788615293367946,
                    6.972345821746224
                ],
                "label": "O",
                "properties": {}
            },
            {
                "species": [
                    {
                        "element": "O",
                        "occu": 1
                    }
                ],
                "abc": [
                    0.81947603,
                    0.11710038,
                    0.25366949
                ],
                "xyz": [
                    4.044031408191929,
                    1.0330164266320536,
                    2.346746726746223
                ],
                "label": "O",
                "properties": {}
            },
            {
                "species": [
                    {
                        "element": "O",
                        "occu": 1
                    }
                ],
                "abc": [
                    0.31947603,
                    0.38289962,
                    0.74633051
                ],
                "xyz": [
                    1.5765819281919289,
                    3.377799433367946,
                    6.904451463253777
                ],
                "label": "O",
                "properties": {}
            },
            {
                "species": [
                    {
                        "element": "O",
                        "occu": 1
                    }
                ],
                "abc": [
                    0.69290578,
                    0.47780942,
                    0.19492269
                ],
                "xyz": [
                    3.4194200130999888,
                    4.215058735586802,
                    1.8032684369179313
                ],
                "label": "O",
                "properties": {}
            },
            {
                "species": [
                    {
                        "element": "O",
                        "occu": 1
                    }
                ],
                "abc": [
                    0.19290578,
                    0.02219058,
                    0.80507731
                ],
                "xyz": [
                    0.9519705330999888,
                    0.1957571244131976,
                    7.44792975308207
                ],
                "label": "O",
                "properties": {}
            },
            {
                "species": [
                    {
                        "element": "O",
                        "occu": 1
                    }
                ],
                "abc": [
                    0.30709422,
                    0.97780942,
                    0.30507731
                ],
                "xyz": [
                    1.515478946900011,
                    8.625874595586803,
                    2.822330658082069
                ],
                "label": "O",
                "properties": {}
            },
            {
                "species": [
                    {
                        "element": "O",
                        "occu": 1
                    }
                ],
                "abc": [
                    0.80709422,
                    0.52219058,
                    0.69492269
                ],
                "xyz": [
                    3.982928426900011,
                    4.606572984413197,
                    6.4288675319179305
                ],
                "label": "O",
                "properties": {}
            }
        ]
    },
    "spacegroup": {
        "source": "spglib",
        "symbol": "P2_12_12_1",
        "number": 19,
        "point_group": "222",
        "crystal_system": "orthorhombic",
        "hall": "P 2ac 2ab"
    },
    "dielectric": {
        "epsilon_ionic": [
            [
                5.70506399,
                2e-08,
                0.0
            ],
            [
                2e-08,
                3.63714598,
                -0.0
            ],
            [
                0.0,
                -0.0,
                4.60469087
            ]
        ],
        "epsilon_ionic_avg": 4.648966946666667,
        "epsilon_ionic_eig": [
            5.705063990000001,
            3.63714598,
            4.60469087
        ],
        "epsilon_electronic": [
            [
                3.60759229,
                0.0,
                0.0
            ],
            [
                0.0,
                3.35910747,
                0.0
            ],
            [
                0.0,
                0.0,
                3.41601651
            ]
        ],
        "epsilon_electronic_avg": 3.460905423333333,
        "epsilon_electronic_eig": [
            3.60759229,
            3.35910747,
            3.41601651
        ]
    },
    "phonon": {
        "lowest_freq": -0.05149413736737948,
        "frequency": [
            -0.05149413736737948,
            -0.029494703486733834,
            -0.02877518595361358,
            1.007404699410778,
            2.813740042452782,
            2.941802958312045,
            3.1253074006278942,
            3.2621097224008397,
            3.304175319130809,
            3.586115369670788,
            3.9645930889011582,
            4.130252919730747,
            4.372945743200495,
            4.651787374605295,
            4.688234166654928,
            4.754877775156944,
            4.856669231527906,
            4.929891810870835,
            5.214017303397529,
            5.475265935732657,
            5.574918634916655,
            5.615621958151775,
            5.719752359254644,
            6.108084441483939,
            6.157360356524709,
            6.2537475355008265,
            6.585797957845475,
            6.771203189806579,
            6.808927157807459,
            6.980900808804431,
            7.354012522947609,
            8.256560372722676,
            8.36008389255983,
            8.48242491141909,
            8.798221280371822,
            8.809990986887003,
            8.893690852860129,
            8.926918492932614,
            9.035964655086602,
            9.201325601914625,
            9.213453568024565,
            9.699027435656113,
            9.863051892017381,
            9.885170881594172,
            11.707614254662548,
            11.856641920677447,
            11.956669359468341,
            12.264288791782686,
            12.950077680194262,
            12.972829657334671,
            13.174818345597794,
            13.273813594933946,
            13.488871257448286,
            13.694198007176276,
            13.999801456593286,
            14.270540934338197,
            14.559554912332162,
            14.821203949714986,
            14.823274598133004,
            14.891837069455564,
            15.667393109161805,
            15.75776385468892,
            15.900657286563616,
            16.799108937292917,
            21.5502875313874,
            21.5528634111845,
            22.34426920018706,
            22.384683262858232,
            22.533868075276285,
            23.084800674574172,
            23.28959977603632,
            23.4018371215163,
            23.597153628652745,
            24.189242838602702,
            24.216893561244287,
            24.44140973125718,
            24.74649579428935,
            25.22464156552504,
            25.587830915122975,
            25.935446829155953,
            26.54397764987043,
            26.77982465109791,
            26.896541355208495,
            27.471892647966417
        ]
    },
    "born_effective_charge": {
        "avg_abs_trace": 2.5004230952380957,
        "tensors": [
            [
                [
                    5.47833,
                    0.61791,
                    -0.27525
                ],
                [
                    -1.17181,
                    4.50281,
                    -0.33523
                ],
                [
                    -0.27434,
                    -0.18375,
                    4.85369
                ]
            ],
            [
                [
                    5.47833,
                    -0.61791,
                    0.27525
                ],
                [
                    1.17179,
                    4.50275,
                    -0.33515
                ],
                [
                    0.27428,
                    -0.18387,
                    4.85377
                ]
            ],
            [
                [
                    5.4783,
                    -0.61791,
                    -0.27528
                ],
                [
                    1.17181,
                    4.50281,
                    0.33523
                ],
                [
                    -0.27428,
                    0.18387,
                    4.85377
                ]
            ],
            [
                [
                    5.4783,
                    0.61791,
                    0.27528
                ],
                [
                    -1.17179,
                    4.50275,
                    0.33515
                ],
                [
                    0.27434,
                    0.18375,
                    4.85369
                ]
            ],
            [
                [
                    3.89142,
                    0.19403,
                    -0.2692
                ],
                [
                    -0.65253,
                    3.71335,
                    -1.13143
                ],
                [
                    0.22833,
                    -1.20158,
                    3.81489
                ]
            ],
            [
                [
                    3.89142,
                    -0.19403,
                    0.2692
                ],
                [
                    0.65249,
                    3.71335,
                    -1.13145
                ],
                [
                    -0.22827,
                    -1.20161,
                    3.81483
                ]
            ],
            [
                [
                    3.89139,
                    -0.19411,
                    -0.26926
                ],
                [
                    0.65253,
                    3.71335,
                    1.13143
                ],
                [
                    0.22827,
                    1.20161,
                    3.81483
                ]
            ],
            [
                [
                    3.89139,
                    0.19411,
                    0.26926
                ],
                [
                    -0.65249,
                    3.71335,
                    1.13145
                ],
                [
                    -0.22833,
                    1.20158,
                    3.81489
                ]
            ],
            [
                [
                    -1.27818,
                    0.13702,
                    0.62739
                ],
                [
                    0.1917,
                    -1.20182,
                    -0.58324
                ],
                [
                    0.50662,
                    -0.52159,
                    -2.70527
                ]
            ],
            [
                [
                    -1.27818,
                    -0.13702,
                    -0.62739
                ],
                [
                    -0.1916,
                    -1.20165,
                    -0.58336
                ],
                [
                    -0.50654,
                    -0.52155,
                    -2.70533
                ]
            ],
            [
                [
                    -1.27828,
                    -0.13723,
                    0.62721
                ],
                [
                    -0.1917,
                    -1.20182,
                    0.58324
                ],
                [
                    0.50654,
                    0.52155,
                    -2.70533
                ]
            ],
            [
                [
                    -1.27828,
                    0.13723,
                    -0.62721
                ],
                [
                    0.1916,
                    -1.20165,
                    0.58336
                ],
                [
                    -0.50662,
                    0.52159,
                    -2.70527
                ]
            ],
            [
                [
                    -1.33779,
                    -0.56788,
                    -0.16123
                ],
                [
                    -0.68942,
                    -2.49666,
                    -0.42421
                ],
                [
                    -0.29789,
                    -0.59584,
                    -1.27635
                ]
            ],
            [
                [
                    -1.33779,
                    0.56788,
                    0.16123
                ],
                [
                    0.6894,
                    -2.49671,
                    -0.42441
                ],
                [
                    0.29806,
                    -0.59572,
                    -1.27641
                ]
            ],
            [
                [
                    -1.33778,
                    0.56772,
                    -0.16128
                ],
                [
                    0.68942,
                    -2.49666,
                    0.42421
                ],
                [
                    -0.29806,
                    0.59572,
                    -1.27641
                ]
            ],
            [
                [
                    -1.33778,
                    -0.56772,
                    0.16128
                ],
                [
                    -0.6894,
                    -2.49671,
                    0.42441
                ],
                [
                    0.29789,
                    0.59584,
                    -1.27635
                ]
            ],
            [
                [
                    -2.21421,
                    0.46424,
                    0.60054
                ],
                [
                    0.31965,
                    -1.44524,
                    -0.24558
                ],
                [
                    0.50353,
                    -0.2118,
                    -1.52543
                ]
            ],
            [
                [
                    -2.21421,
                    -0.46424,
                    -0.60054
                ],
                [
                    -0.31974,
                    -1.44516,
                    -0.24556
                ],
                [
                    -0.50363,
                    -0.21191,
                    -1.52545
                ]
            ],
            [
                [
                    -2.21419,
                    -0.46409,
                    0.60064
                ],
                [
                    -0.31965,
                    -1.44524,
                    0.24558
                ],
                [
                    0.50363,
                    0.21191,
                    -1.52545
                ]
            ],
            [
                [
                    -2.21419,
                    0.46409,
                    -0.60064
                ],
                [
                    0.31974,
                    -1.44516,
                    0.24556
                ],
                [
                    -0.50353,
                    0.2118,
                    -1.52543
                ]
            ],
            [
                [
                    -2.29225,
                    0.81896,
                    -0.7647
                ],
                [
                    0.73638,
                    -1.58798,
                    0.65517
                ],
                [
                    -0.85207,
                    0.7427,
                    -1.53321
                ]
            ],
            [
                [
                    -2.29225,
                    -0.81896,
                    0.7647
                ],
                [
                    -0.73643,
                    -1.58775,
                    0.65512
                ],
                [
                    0.85199,
                    0.74269,
                    -1.53343
                ]
            ],
            [
                [
                    -2.29226,
                    -0.81938,
                    -0.76465
                ],
                [
                    -0.73638,
                    -1.58798,
                    -0.65517
                ],
                [
                    -0.85199,
                    -0.74269,
                    -1.53343
                ]
            ],
            [
                [
                    -2.29226,
                    0.81938,
                    0.76465
                ],
                [
                    0.73643,
                    -1.58775,
                    -0.65512
                ],
                [
                    0.85207,
                    -0.7427,
                    -1.53321
                ]
            ],
            [
                [
                    -2.24721,
                    -0.54943,
                    0.78895
                ],
                [
                    -0.71362,
                    -1.48473,
                    0.77386
                ],
                [
                    0.95887,
                    0.69565,
                    -1.62816
                ]
            ],
            [
                [
                    -2.24721,
                    0.54943,
                    -0.78895
                ],
                [
                    0.71383,
                    -1.48457,
                    0.77373
                ],
                [
                    -0.95888,
                    0.69553,
                    -1.62814
                ]
            ],
            [
                [
                    -2.24729,
                    0.5495,
                    0.78899
                ],
                [
                    0.71362,
                    -1.48473,
                    -0.77386
                ],
                [
                    0.95888,
                    -0.69553,
                    -1.62814
                ]
            ],
            [
                [
                    -2.24729,
                    -0.5495,
                    -0.78899
                ],
                [
                    -0.71383,
                    -1.48457,
                    -0.77373
                ],
                [
                    -0.95887,
                    -0.69565,
                    -1.62816
                ]
            ]
        ]
    },
    "band_gap": 1.9707999999999999,
    "is_direct": false,
    "formula": "SbAsO5"
}