{
    "mp_id": "mp-1096971",
    "nelements": 3,
    "nsites": 4,
    "elements": [
        "Ag",
        "Ga",
        "O"
    ],
    "structure": {
        "@module": "pymatgen.core.structure",
        "@class": "Structure",
        "charge": null,
        "lattice": {
            "matrix": [
                [
                    1.4925106,
                    0.86170167,
                    6.15300025
                ],
                [
                    -1.4925106,
                    0.86170167,
                    6.15300025
                ],
                [
                    0.0,
                    -1.72340333,
                    6.15300025
                ]
            ],
            "a": 6.389798880692037,
            "b": 6.389798880692037,
            "c": 6.389798988571953,
            "alpha": 27.01552959114859,
            "beta": 27.01552959114859,
            "gamma": 27.015523354854764,
            "volume": 47.48020006857588
        },
        "sites": [
            {
                "species": [
                    {
                        "element": "Ga",
                        "occu": 1
                    }
                ],
                "abc": [
                    0.5,
                    0.5,
                    0.5
                ],
                "xyz": [
                    0.0,
                    4.999999969612645e-09,
                    9.229500375
                ],
                "label": "Ga",
                "properties": {}
            },
            {
                "species": [
                    {
                        "element": "Ag",
                        "occu": 1
                    }
                ],
                "abc": [
                    0.0,
                    0.0,
                    0.0
                ],
                "xyz": [
                    0.0,
                    0.0,
                    0.0
                ],
                "label": "Ag",
                "properties": {}
            },
            {
                "species": [
                    {
                        "element": "O",
                        "occu": 1
                    }
                ],
                "abc": [
                    0.88806528,
                    0.88806528,
                    0.88806528
                ],
                "xyz": [
                    0.0,
                    8.880652657694554e-09,
                    16.392797669568957
                ],
                "label": "O",
                "properties": {}
            },
            {
                "species": [
                    {
                        "element": "O",
                        "occu": 1
                    }
                ],
                "abc": [
                    0.11193472,
                    0.11193472,
                    0.11193472
                ],
                "xyz": [
                    0.0,
                    1.119347198264009e-09,
                    2.06620308043104
                ],
                "label": "O",
                "properties": {}
            }
        ]
    },
    "spacegroup": {
        "source": "spglib",
        "symbol": "R-3m",
        "number": 166,
        "point_group": "-3m",
        "crystal_system": "trigonal",
        "hall": "-R 3 2\""
    },
    "dielectric": {
        "epsilon_ionic": [
            [
                6.32519599,
                0.0,
                -0.0
            ],
            [
                0.0,
                6.32480989,
                -8.4e-07
            ],
            [
                -0.0,
                -8.4e-07,
                2.71321182
            ]
        ],
        "epsilon_ionic_avg": 5.121072566666666,
        "epsilon_ionic_eig": [
            2.7132118199998043,
            6.3248098900001954,
            6.32519599
        ],
        "epsilon_electronic": [
            [
                5.49632305,
                0.0,
                0.0
            ],
            [
                0.0,
                5.4963193,
                -3e-07
            ],
            [
                0.0,
                -3e-07,
                5.5262849
            ]
        ],
        "epsilon_electronic_avg": 5.506309083333334,
        "epsilon_electronic_eig": [
            5.526284900003004,
            5.496319299996996,
            5.49632305
        ]
    },
    "phonon": {
        "lowest_freq": -0.05840349463625218,
        "frequency": [
            -0.05840349463625218,
            -0.058403474759002906,
            -0.011699813285287353,
            2.3109763107502883,
            2.3109770986340323,
            8.628256008722966,
            10.427916871187405,
            10.42792043362601,
            10.63854186574475,
            10.638545506978174,
            16.423782064364552,
            19.493715414847014
        ]
    },
    "born_effective_charge": {
        "avg_abs_trace": 2.1469774999999998,
        "tensors": [
            [
                [
                    3.41888,
                    -0.0,
                    -0.0
                ],
                [
                    0.0,
                    3.41885,
                    1e-05
                ],
                [
                    0.0,
                    -0.0,
                    2.6999
                ]
            ],
            [
                [
                    0.74537,
                    0.0,
                    0.0
                ],
                [
                    0.0,
                    0.7453,
                    -1e-05
                ],
                [
                    0.0,
                    -0.0,
                    1.85356
                ]
            ],
            [
                [
                    -2.08213,
                    4e-05,
                    -0.00019
                ],
                [
                    0.0,
                    -2.0821,
                    -4e-05
                ],
                [
                    0.0,
                    0.0,
                    -2.2767
                ]
            ],
            [
                [
                    -2.08213,
                    -4e-05,
                    0.00019
                ],
                [
                    0.0,
                    -2.08205,
                    4e-05
                ],
                [
                    0.0,
                    0.0,
                    -2.27676
                ]
            ]
        ]
    },
    "band_gap": 1.0381,
    "is_direct": false,
    "formula": "GaAgO2"
}