{
    "mp_id": "mp-10461",
    "nelements": 4,
    "nsites": 22,
    "elements": [
        "Na",
        "O",
        "Sb",
        "Sr"
    ],
    "structure": {
        "@module": "pymatgen.core.structure",
        "@class": "Structure",
        "charge": null,
        "lattice": {
            "matrix": [
                [
                    4.87238674,
                    2.81307362,
                    3.84810394
                ],
                [
                    -4.87238674,
                    2.81307362,
                    3.84810394
                ],
                [
                    0.0,
                    -5.62614724,
                    3.84810394
                ]
            ],
            "a": 6.816262881426394,
            "b": 6.816262881426394,
            "c": 6.816262663601157,
            "alpha": 91.25655167742462,
            "beta": 91.25655167742462,
            "gamma": 91.25655530011129,
            "volume": 316.46150942649535
        },
        "sites": [
            {
                "species": [
                    {
                        "element": "Na",
                        "occu": 1
                    }
                ],
                "abc": [
                    0.75,
                    0.75,
                    0.75
                ],
                "xyz": [
                    0.0,
                    0.0,
                    8.658233865
                ],
                "label": "Na",
                "properties": {}
            },
            {
                "species": [
                    {
                        "element": "Na",
                        "occu": 1
                    }
                ],
                "abc": [
                    0.25,
                    0.25,
                    0.25
                ],
                "xyz": [
                    0.0,
                    0.0,
                    2.886077955
                ],
                "label": "Na",
                "properties": {}
            },
            {
                "species": [
                    {
                        "element": "Sr",
                        "occu": 1
                    }
                ],
                "abc": [
                    0.75,
                    0.10135771,
                    0.39864229
                ],
                "xyz": [
                    3.1604360927992343,
                    0.1521116955538302,
                    4.810129925
                ],
                "label": "Sr",
                "properties": {}
            },
            {
                "species": [
                    {
                        "element": "Sr",
                        "occu": 1
                    }
                ],
                "abc": [
                    0.10135771,
                    0.39864229,
                    0.75
                ],
                "xyz": [
                    -1.448485445598469,
                    -2.813073619999999,
                    4.810129925
                ],
                "label": "Sr",
                "properties": {}
            },
            {
                "species": [
                    {
                        "element": "Sr",
                        "occu": 1
                    }
                ],
                "abc": [
                    0.60135771,
                    0.25,
                    0.89864229
                ],
                "xyz": [
                    1.7119506472007653,
                    -2.660961924446169,
                    6.734181895000001
                ],
                "label": "Sr",
                "properties": {}
            },
            {
                "species": [
                    {
                        "element": "Sr",
                        "occu": 1
                    }
                ],
                "abc": [
                    0.25,
                    0.89864229,
                    0.60135771
                ],
                "xyz": [
                    -3.160436092799234,
                    -0.15211169555383108,
                    6.734181895000001
                ],
                "label": "Sr",
                "properties": {}
            },
            {
                "species": [
                    {
                        "element": "Sr",
                        "occu": 1
                    }
                ],
                "abc": [
                    0.89864229,
                    0.60135771,
                    0.25
                ],
                "xyz": [
                    1.4484854455984686,
                    2.8130736199999995,
                    6.734181895000001
                ],
                "label": "Sr",
                "properties": {}
            },
            {
                "species": [
                    {
                        "element": "Sr",
                        "occu": 1
                    }
                ],
                "abc": [
                    0.39864229,
                    0.75,
                    0.10135771
                ],
                "xyz": [
                    -1.7119506472007653,
                    2.660961924446169,
                    4.810129925
                ],
                "label": "Sr",
                "properties": {}
            },
            {
                "species": [
                    {
                        "element": "Sb",
                        "occu": 1
                    }
                ],
                "abc": [
                    0.5,
                    0.5,
                    0.5
                ],
                "xyz": [
                    0.0,
                    0.0,
                    5.77215591
                ],
                "label": "Sb",
                "properties": {}
            },
            {
                "species": [
                    {
                        "element": "Sb",
                        "occu": 1
                    }
                ],
                "abc": [
                    0.0,
                    0.0,
                    0.0
                ],
                "xyz": [
                    0.0,
                    0.0,
                    0.0
                ],
                "label": "Sb",
                "properties": {}
            },
            {
                "species": [
                    {
                        "element": "O",
                        "occu": 1
                    }
                ],
                "abc": [
                    0.28106844,
                    0.07548922,
                    0.94569675
                ],
                "xyz": [
                    1.0016614655475427,
                    -4.317606212534541,
                    5.011210326003376
                ],
                "label": "O",
                "properties": {}
            },
            {
                "species": [
                    {
                        "element": "O",
                        "occu": 1
                    }
                ],
                "abc": [
                    0.07548922,
                    0.94569675,
                    0.28106844
                ],
                "xyz": [
                    -4.239987630220152,
                    1.2913388853640058,
                    5.011210326003376
                ],
                "label": "O",
                "properties": {}
            },
            {
                "species": [
                    {
                        "element": "O",
                        "occu": 1
                    }
                ],
                "abc": [
                    0.94569675,
                    0.28106844,
                    0.07548922
                ],
                "xyz": [
                    3.2383261646726096,
                    3.026267327170535,
                    5.011210326003376
                ],
                "label": "O",
                "properties": {}
            },
            {
                "species": [
                    {
                        "element": "O",
                        "occu": 1
                    }
                ],
                "abc": [
                    0.55430325,
                    0.42451078,
                    0.21893156
                ],
                "xyz": [
                    0.6323991097798478,
                    1.5217347346359937,
                    4.6090495239966245
                ],
                "label": "O",
                "properties": {}
            },
            {
                "species": [
                    {
                        "element": "O",
                        "occu": 1
                    }
                ],
                "abc": [
                    0.42451078,
                    0.21893156,
                    0.55430325
                ],
                "xyz": [
                    1.0016614655475427,
                    -1.3085410274654592,
                    4.6090495239966245
                ],
                "label": "O",
                "properties": {}
            },
            {
                "species": [
                    {
                        "element": "O",
                        "occu": 1
                    }
                ],
                "abc": [
                    0.21893156,
                    0.55430325,
                    0.42451078
                ],
                "xyz": [
                    -1.6340605753273905,
                    -0.21319370717053454,
                    4.6090495239966245
                ],
                "label": "O",
                "properties": {}
            },
            {
                "species": [
                    {
                        "element": "O",
                        "occu": 1
                    }
                ],
                "abc": [
                    0.71893156,
                    0.92451078,
                    0.05430325
                ],
                "xyz": [
                    -1.0016614655475427,
                    4.317606212534542,
                    6.533101493996624
                ],
                "label": "O",
                "properties": {}
            },
            {
                "species": [
                    {
                        "element": "O",
                        "occu": 1
                    }
                ],
                "abc": [
                    0.92451078,
                    0.05430325,
                    0.71893156
                ],
                "xyz": [
                    4.239987630220152,
                    -1.2913388853640062,
                    6.533101493996625
                ],
                "label": "O",
                "properties": {}
            },
            {
                "species": [
                    {
                        "element": "O",
                        "occu": 1
                    }
                ],
                "abc": [
                    0.05430325,
                    0.71893156,
                    0.92451078
                ],
                "xyz": [
                    -3.238326164672609,
                    -3.026267327170535,
                    6.533101493996625
                ],
                "label": "O",
                "properties": {}
            },
            {
                "species": [
                    {
                        "element": "O",
                        "occu": 1
                    }
                ],
                "abc": [
                    0.44569675,
                    0.57548922,
                    0.78106844
                ],
                "xyz": [
                    -0.6323991097798478,
                    -1.5217347346359933,
                    6.935262296003375
                ],
                "label": "O",
                "properties": {}
            },
            {
                "species": [
                    {
                        "element": "O",
                        "occu": 1
                    }
                ],
                "abc": [
                    0.78106844,
                    0.44569675,
                    0.57548922
                ],
                "xyz": [
                    1.6340605753273905,
                    0.21319370717053454,
                    6.935262296003376
                ],
                "label": "O",
                "properties": {}
            },
            {
                "species": [
                    {
                        "element": "O",
                        "occu": 1
                    }
                ],
                "abc": [
                    0.57548922,
                    0.78106844,
                    0.44569675
                ],
                "xyz": [
                    -1.0016614655475427,
                    1.3085410274654592,
                    6.935262296003376
                ],
                "label": "O",
                "properties": {}
            }
        ]
    },
    "spacegroup": {
        "source": "spglib",
        "symbol": "R-3c",
        "number": 167,
        "point_group": "-3m",
        "crystal_system": "trigonal",
        "hall": "-R 3 2\"c"
    },
    "dielectric": {
        "epsilon_ionic": [
            [
                9.85976272,
                -0.0,
                -0.0
            ],
            [
                -0.0,
                9.85956682,
                4.7e-07
            ],
            [
                -0.0,
                4.7e-07,
                6.88728385
            ]
        ],
        "epsilon_ionic_avg": 8.86887113,
        "epsilon_ionic_eig": [
            6.887283849999926,
            9.859566820000074,
            9.85976272
        ],
        "epsilon_electronic": [
            [
                3.70424889,
                0.0,
                0.0
            ],
            [
                0.0,
                3.70424815,
                3.1e-07
            ],
            [
                0.0,
                3.1e-07,
                3.54903103
            ]
        ],
        "epsilon_electronic_avg": 3.6525093566666667,
        "epsilon_electronic_eig": [
            3.549031029999381,
            3.7042481500006192,
            3.70424889
        ]
    },
    "phonon": {
        "lowest_freq": -0.09245513853517161,
        "frequency": [
            -0.09245513853517161,
            -0.09245512941528375,
            -0.03770399827545569,
            3.102736859636907,
            3.1027370014214823,
            3.283303045278728,
            3.291181970324844,
            3.559204610857544,
            3.5592046417577223,
            3.6486642444393436,
            3.885520881402523,
            4.026453266022277,
            4.026453375279781,
            4.2139136848217555,
            4.213913829817682,
            4.667114060665453,
            4.6671144324671365,
            4.684796506097571,
            4.976888639245932,
            5.057242450646683,
            5.057242571463577,
            5.461814015753363,
            5.494727727722198,
            5.560212219140756,
            5.56021270264772,
            6.046951594342412,
            6.046951695385113,
            6.055721440274063,
            6.055721843859541,
            6.255486204115404,
            6.438872648167344,
            6.438872799995244,
            6.6730510701220895,
            6.673051491308949,
            7.191778949182739,
            8.478581183618292,
            8.478581529525401,
            8.762745088051968,
            8.869082391273345,
            9.249537755996103,
            9.33768946655856,
            9.337689767553947,
            10.171333668217928,
            10.171334389067713,
            11.009717510167661,
            11.01631085709665,
            11.01631134517318,
            11.266508707551562,
            11.612537721002491,
            11.61253806826527,
            11.821778196821896,
            11.821778837707196,
            12.221784896184102,
            12.401168510175056,
            15.494788321221359,
            15.49478927549109,
            16.144637530926747,
            16.21854755035906,
            16.218548454509538,
            16.68517084585867,
            16.685171871200804,
            16.978842778695586,
            16.97884335447129,
            17.00684571293066,
            19.01567232720813,
            19.085368273515332
        ]
    },
    "born_effective_charge": {
        "avg_abs_trace": 2.3090157575757577,
        "tensors": [
            [
                [
                    0.87812,
                    -0.0,
                    -0.0
                ],
                [
                    -2e-05,
                    0.87813,
                    -0.0
                ],
                [
                    -0.0,
                    0.0,
                    1.19009
                ]
            ],
            [
                [
                    0.87811,
                    -0.0,
                    -0.0
                ],
                [
                    2e-05,
                    0.87813,
                    -0.0
                ],
                [
                    -0.0,
                    0.0,
                    1.19009
                ]
            ],
            [
                [
                    2.53911,
                    0.06408,
                    -0.26234
                ],
                [
                    0.06396,
                    2.46504,
                    -0.15143
                ],
                [
                    -0.27243,
                    -0.15734,
                    2.3948
                ]
            ],
            [
                [
                    2.42812,
                    -0.0,
                    -0.0
                ],
                [
                    3e-05,
                    2.57604,
                    0.30288
                ],
                [
                    -5e-05,
                    0.31461,
                    2.3948
                ]
            ],
            [
                [
                    2.53911,
                    -0.06404,
                    0.26234
                ],
                [
                    -0.06396,
                    2.46504,
                    -0.15143
                ],
                [
                    0.27243,
                    -0.15734,
                    2.3948
                ]
            ],
            [
                [
                    2.53911,
                    0.06404,
                    -0.26234
                ],
                [
                    0.06414,
                    2.46516,
                    -0.15144
                ],
                [
                    -0.27248,
                    -0.15726,
                    2.3948
                ]
            ],
            [
                [
                    2.42817,
                    -0.0,
                    -0.0
                ],
                [
                    -3e-05,
                    2.57604,
                    0.30288
                ],
                [
                    5e-05,
                    0.31461,
                    2.3948
                ]
            ],
            [
                [
                    2.53911,
                    -0.06408,
                    0.26234
                ],
                [
                    -0.06414,
                    2.46516,
                    -0.15144
                ],
                [
                    0.27248,
                    -0.15726,
                    2.3948
                ]
            ],
            [
                [
                    4.50027,
                    -0.01014,
                    -0.0
                ],
                [
                    0.01014,
                    4.50028,
                    0.0
                ],
                [
                    -0.0,
                    0.0,
                    3.95487
                ]
            ],
            [
                [
                    4.50027,
                    0.01014,
                    0.0
                ],
                [
                    -0.01014,
                    4.50028,
                    0.0
                ],
                [
                    -0.0,
                    0.0,
                    3.95487
                ]
            ],
            [
                [
                    -2.06589,
                    -0.20523,
                    -0.30506
                ],
                [
                    -0.22247,
                    -2.229,
                    -0.43529
                ],
                [
                    -0.29683,
                    -0.42487,
                    -2.05492
                ]
            ],
            [
                [
                    -2.00308,
                    0.18617,
                    -0.22441
                ],
                [
                    0.16897,
                    -2.29191,
                    0.48189
                ],
                [
                    -0.21954,
                    0.4695,
                    -2.05492
                ]
            ],
            [
                [
                    -2.3734,
                    0.04486,
                    0.5295
                ],
                [
                    0.02778,
                    -1.92148,
                    -0.04659
                ],
                [
                    0.51636,
                    -0.04462,
                    -2.05492
                ]
            ],
            [
                [
                    -2.00308,
                    -0.18617,
                    0.22441
                ],
                [
                    -0.16893,
                    -2.29176,
                    0.4818
                ],
                [
                    0.21952,
                    0.46957,
                    -2.05487
                ]
            ],
            [
                [
                    -2.06589,
                    0.20523,
                    0.30506
                ],
                [
                    0.22235,
                    -2.22899,
                    -0.43526
                ],
                [
                    0.2969,
                    -0.42489,
                    -2.05487
                ]
            ],
            [
                [
                    -2.3734,
                    -0.04486,
                    -0.5295
                ],
                [
                    -0.02762,
                    -1.9215,
                    -0.04655
                ],
                [
                    -0.51641,
                    -0.04468,
                    -2.05487
                ]
            ],
            [
                [
                    -2.06592,
                    -0.20523,
                    -0.3051
                ],
                [
                    -0.22235,
                    -2.22899,
                    -0.43526
                ],
                [
                    -0.2969,
                    -0.42489,
                    -2.05487
                ]
            ],
            [
                [
                    -2.00304,
                    0.18608,
                    -0.22443
                ],
                [
                    0.16893,
                    -2.29176,
                    0.4818
                ],
                [
                    -0.21952,
                    0.46957,
                    -2.05487
                ]
            ],
            [
                [
                    -2.37342,
                    0.04488,
                    0.5295
                ],
                [
                    0.02762,
                    -1.9215,
                    -0.04655
                ],
                [
                    0.51641,
                    -0.04468,
                    -2.05487
                ]
            ],
            [
                [
                    -2.00304,
                    -0.18608,
                    0.22443
                ],
                [
                    -0.16897,
                    -2.29191,
                    0.48189
                ],
                [
                    0.21954,
                    0.4695,
                    -2.05492
                ]
            ],
            [
                [
                    -2.37342,
                    -0.04488,
                    -0.5295
                ],
                [
                    -0.02778,
                    -1.92148,
                    -0.04659
                ],
                [
                    -0.51636,
                    -0.04462,
                    -2.05492
                ]
            ],
            [
                [
                    -2.06592,
                    0.20523,
                    0.3051
                ],
                [
                    0.22247,
                    -2.229,
                    -0.43529
                ],
                [
                    0.29683,
                    -0.42487,
                    -2.05492
                ]
            ]
        ]
    },
    "band_gap": 3.077,
    "is_direct": false,
    "formula": "NaSr3SbO6"
}