{
    "mp_id": "mp-1211547",
    "nelements": 3,
    "nsites": 24,
    "elements": [
        "K",
        "O",
        "Th"
    ],
    "structure": {
        "@module": "pymatgen.core.structure",
        "@class": "Structure",
        "charge": null,
        "lattice": {
            "matrix": [
                [
                    3.27413167,
                    -5.68288027,
                    0.00095339
                ],
                [
                    3.27413167,
                    5.68288027,
                    0.00095339
                ],
                [
                    -2.23878308,
                    0.0,
                    12.67330276
                ]
            ],
            "a": 6.558587291833872,
            "b": 6.558587291833872,
            "c": 12.869528061507069,
            "alpha": 94.97378485728798,
            "beta": 94.97378485728798,
            "gamma": 120.10411232814673,
            "volume": 471.63583118739433
        },
        "sites": [
            {
                "species": [
                    {
                        "element": "K",
                        "occu": 1
                    }
                ],
                "abc": [
                    0.18484261,
                    0.3422914,
                    0.50030256
                ],
                "xyz": [
                    0.605837250266412,
                    0.8947626222263734,
                    6.340988378776859
                ],
                "label": "K",
                "properties": {}
            },
            {
                "species": [
                    {
                        "element": "K",
                        "occu": 1
                    }
                ],
                "abc": [
                    0.81515739,
                    0.6577086,
                    0.49969744
                ],
                "xyz": [
                    3.7036430097335886,
                    -0.8947626222263731,
                    6.33422116122314
                ],
                "label": "K",
                "properties": {}
            },
            {
                "species": [
                    {
                        "element": "K",
                        "occu": 1
                    }
                ],
                "abc": [
                    0.6577086,
                    0.81515739,
                    0.99969744
                ],
                "xyz": [
                    2.5842514697335885,
                    0.8947626222263731,
                    12.67087254122314
                ],
                "label": "K",
                "properties": {}
            },
            {
                "species": [
                    {
                        "element": "K",
                        "occu": 1
                    }
                ],
                "abc": [
                    0.3422914,
                    0.18484261,
                    0.00030256
                ],
                "xyz": [
                    1.725228790266412,
                    -0.8947626222263734,
                    0.0043369987768595
                ],
                "label": "K",
                "properties": {}
            },
            {
                "species": [
                    {
                        "element": "K",
                        "occu": 1
                    }
                ],
                "abc": [
                    0.58531849,
                    0.41468151,
                    0.75
                ],
                "xyz": [
                    1.59504436,
                    -0.969709526974385,
                    9.50593046
                ],
                "label": "K",
                "properties": {}
            },
            {
                "species": [
                    {
                        "element": "K",
                        "occu": 1
                    }
                ],
                "abc": [
                    0.41468151,
                    0.58531849,
                    0.25
                ],
                "xyz": [
                    2.7144359,
                    0.969709526974385,
                    3.16927908
                ],
                "label": "K",
                "properties": {}
            },
            {
                "species": [
                    {
                        "element": "K",
                        "occu": 1
                    }
                ],
                "abc": [
                    0.0,
                    0.5,
                    0.0
                ],
                "xyz": [
                    1.637065835,
                    2.841440135,
                    0.000476695
                ],
                "label": "K",
                "properties": {}
            },
            {
                "species": [
                    {
                        "element": "K",
                        "occu": 1
                    }
                ],
                "abc": [
                    0.5,
                    0.0,
                    0.5
                ],
                "xyz": [
                    0.517674295,
                    -2.841440135,
                    6.337128075
                ],
                "label": "K",
                "properties": {}
            },
            {
                "species": [
                    {
                        "element": "Th",
                        "occu": 1
                    }
                ],
                "abc": [
                    0.25111373,
                    0.74888627,
                    0.75
                ],
                "xyz": [
                    1.59504436,
                    2.8287817465137857,
                    9.50593046
                ],
                "label": "Th",
                "properties": {}
            },
            {
                "species": [
                    {
                        "element": "Th",
                        "occu": 1
                    }
                ],
                "abc": [
                    0.74888627,
                    0.25111373,
                    0.25
                ],
                "xyz": [
                    2.7144359,
                    -2.8287817465137857,
                    3.16927908
                ],
                "label": "Th",
                "properties": {}
            },
            {
                "species": [
                    {
                        "element": "Th",
                        "occu": 1
                    }
                ],
                "abc": [
                    0.91843624,
                    0.08156376,
                    0.75
                ],
                "xyz": [
                    1.59504436,
                    -4.7558461050979695,
                    9.50593046
                ],
                "label": "Th",
                "properties": {}
            },
            {
                "species": [
                    {
                        "element": "Th",
                        "occu": 1
                    }
                ],
                "abc": [
                    0.08156376,
                    0.91843624,
                    0.25
                ],
                "xyz": [
                    2.7144359,
                    4.7558461050979695,
                    3.16927908
                ],
                "label": "Th",
                "properties": {}
            },
            {
                "species": [
                    {
                        "element": "O",
                        "occu": 1
                    }
                ],
                "abc": [
                    0.00266794,
                    0.17246646,
                    0.14744069
                ],
                "xyz": [
                    0.24332536347092276,
                    0.9649446591832003,
                    1.8687274748989207
                ],
                "label": "O",
                "properties": {}
            },
            {
                "species": [
                    {
                        "element": "O",
                        "occu": 1
                    }
                ],
                "abc": [
                    0.99733206,
                    0.82753354,
                    0.85255931
                ],
                "xyz": [
                    4.066154896529077,
                    -0.9649446591832005,
                    10.80648206510108
                ],
                "label": "O",
                "properties": {}
            },
            {
                "species": [
                    {
                        "element": "O",
                        "occu": 1
                    }
                ],
                "abc": [
                    0.82753354,
                    0.99733206,
                    0.35255931
                ],
                "xyz": [
                    5.185546436529076,
                    0.9649446591832005,
                    4.46983068510108
                ],
                "label": "O",
                "properties": {}
            },
            {
                "species": [
                    {
                        "element": "O",
                        "occu": 1
                    }
                ],
                "abc": [
                    0.17246646,
                    0.00266794,
                    0.64744069
                ],
                "xyz": [
                    -0.8760661765290775,
                    -0.9649446591832003,
                    8.205378854898921
                ],
                "label": "O",
                "properties": {}
            },
            {
                "species": [
                    {
                        "element": "O",
                        "occu": 1
                    }
                ],
                "abc": [
                    0.24405491,
                    0.45053584,
                    0.85295063
                ],
                "xyz": [
                    0.3646101337447121,
                    1.1734064032282514,
                    10.810363789197881
                ],
                "label": "O",
                "properties": {}
            },
            {
                "species": [
                    {
                        "element": "O",
                        "occu": 1
                    }
                ],
                "abc": [
                    0.75594509,
                    0.54946416,
                    0.14704937
                ],
                "xyz": [
                    3.944870126255288,
                    -1.1734064032282516,
                    1.864845750802119
                ],
                "label": "O",
                "properties": {}
            },
            {
                "species": [
                    {
                        "element": "O",
                        "occu": 1
                    }
                ],
                "abc": [
                    0.54946416,
                    0.75594509,
                    0.64704937
                ],
                "xyz": [
                    2.825478586255288,
                    1.1734064032282516,
                    8.201497130802117
                ],
                "label": "O",
                "properties": {}
            },
            {
                "species": [
                    {
                        "element": "O",
                        "occu": 1
                    }
                ],
                "abc": [
                    0.45053584,
                    0.24405491,
                    0.35295063
                ],
                "xyz": [
                    1.4840016737447121,
                    -1.1734064032282514,
                    4.473712409197882
                ],
                "label": "O",
                "properties": {}
            },
            {
                "species": [
                    {
                        "element": "O",
                        "occu": 1
                    }
                ],
                "abc": [
                    0.92769592,
                    0.37985979,
                    0.64769702
                ],
                "xyz": [
                    2.831056431057914,
                    -3.1132871343701556,
                    8.209707041748132
                ],
                "label": "O",
                "properties": {}
            },
            {
                "species": [
                    {
                        "element": "O",
                        "occu": 1
                    }
                ],
                "abc": [
                    0.07230408,
                    0.62014021,
                    0.35230298
                ],
                "xyz": [
                    1.478423828942086,
                    3.113287134370155,
                    4.465502498251867
                ],
                "label": "O",
                "properties": {}
            },
            {
                "species": [
                    {
                        "element": "O",
                        "occu": 1
                    }
                ],
                "abc": [
                    0.62014021,
                    0.07230408,
                    0.85230298
                ],
                "xyz": [
                    0.35903228894208583,
                    -3.113287134370155,
                    10.802153878251868
                ],
                "label": "O",
                "properties": {}
            },
            {
                "species": [
                    {
                        "element": "O",
                        "occu": 1
                    }
                ],
                "abc": [
                    0.37985979,
                    0.92769592,
                    0.14769702
                ],
                "xyz": [
                    3.950447971057914,
                    3.1132871343701556,
                    1.8730556617481322
                ],
                "label": "O",
                "properties": {}
            }
        ]
    },
    "spacegroup": {
        "source": "spglib",
        "symbol": "C2/c",
        "number": 15,
        "point_group": "2/m",
        "crystal_system": "monoclinic",
        "hall": "-C 2yc"
    },
    "dielectric": {
        "epsilon_ionic": [
            [
                9.89847404,
                -0.0,
                -0.35706637
            ],
            [
                -0.0,
                10.67622622,
                0.0
            ],
            [
                -0.35706637,
                0.0,
                6.15482766
            ]
        ],
        "epsilon_ionic_avg": 8.909842639999999,
        "epsilon_ionic_eig": [
            9.932226470962537,
            6.121075229037464,
            10.67622622
        ],
        "epsilon_electronic": [
            [
                3.66607921,
                0.0,
                -0.00013139
            ],
            [
                0.0,
                3.67808323,
                0.0
            ],
            [
                -0.00012931,
                0.0,
                3.13200814
            ]
        ],
        "epsilon_electronic_avg": 3.49205686,
        "epsilon_electronic_eig": [
            3.6660792418123203,
            3.1320081081876796,
            3.67808323
        ]
    },
    "phonon": {
        "lowest_freq": -0.05698762871178277,
        "frequency": [
            -0.05698762871178277,
            -0.04857561031852133,
            -0.02980995968752698,
            1.0486005006849184,
            1.1885282840993834,
            1.6008210563651797,
            1.6949482340413689,
            2.067818126107361,
            2.070037041570857,
            2.1931176025176233,
            2.301985617710723,
            2.3911075870524994,
            2.668477356469113,
            2.910670428522683,
            3.073949223519014,
            3.3511189026465558,
            3.3536863814513,
            3.505320459531641,
            3.7092303214072575,
            3.865200485620707,
            4.124729722722059,
            4.223826471869468,
            4.349480621944994,
            4.368337153434079,
            4.591784064413707,
            4.596149694565325,
            5.034522929904113,
            5.078380665195615,
            5.122488518579772,
            5.192543378341745,
            5.265813964471575,
            5.306009994349148,
            5.313791085446273,
            5.333510818689016,
            5.4695137640507365,
            5.5362601095830115,
            6.565617064773277,
            6.626116120956823,
            6.71726776879105,
            6.901176652631928,
            6.97882637838156,
            7.153956163503783,
            7.774570915684157,
            7.779200413109461,
            7.819187263745885,
            7.902002231791228,
            8.270636599628475,
            8.66493543668696,
            9.547894489771785,
            9.578802555690794,
            9.659857938637364,
            9.666068085524378,
            9.8534144048065,
            9.882258778910952,
            10.00192274611571,
            10.111750143211962,
            10.149747947074717,
            10.152719335014993,
            10.36573306858153,
            10.393094384605279,
            10.437384969839313,
            10.445034872537784,
            10.511095411504945,
            11.331173998996038,
            11.346059427159847,
            11.382778547886701,
            11.404566092701902,
            14.04314611837598,
            14.076628309760288,
            14.164012399040217,
            15.70069245831845,
            15.702318497284283
        ]
    },
    "born_effective_charge": {
        "avg_abs_trace": 2.3141633333333336,
        "tensors": [
            [
                [
                    1.03188,
                    0.04338,
                    0.02453
                ],
                [
                    0.04326,
                    1.08004,
                    0.04145
                ],
                [
                    0.03847,
                    0.06486,
                    1.49402
                ]
            ],
            [
                [
                    1.03189,
                    0.04341,
                    0.02453
                ],
                [
                    0.04325,
                    1.08005,
                    0.04145
                ],
                [
                    0.03842,
                    0.06489,
                    1.49402
                ]
            ],
            [
                [
                    1.03189,
                    -0.04341,
                    0.02453
                ],
                [
                    -0.04326,
                    1.08004,
                    -0.04145
                ],
                [
                    0.03842,
                    -0.06489,
                    1.49402
                ]
            ],
            [
                [
                    1.03188,
                    -0.04338,
                    0.02453
                ],
                [
                    -0.04325,
                    1.08005,
                    -0.04145
                ],
                [
                    0.03847,
                    -0.06486,
                    1.49402
                ]
            ],
            [
                [
                    1.28188,
                    1e-05,
                    0.0039
                ],
                [
                    0.0,
                    1.28013,
                    0.0
                ],
                [
                    -0.00094,
                    -1e-05,
                    0.7701
                ]
            ],
            [
                [
                    1.28188,
                    -1e-05,
                    0.0039
                ],
                [
                    0.0,
                    1.28012,
                    0.0
                ],
                [
                    -0.00094,
                    1e-05,
                    0.7701
                ]
            ],
            [
                [
                    1.11583,
                    0.09217,
                    -0.03798
                ],
                [
                    0.09188,
                    1.01022,
                    0.06768
                ],
                [
                    -0.07087,
                    0.12372,
                    1.49799
                ]
            ],
            [
                [
                    1.11583,
                    -0.09217,
                    -0.03798
                ],
                [
                    -0.09188,
                    1.01022,
                    -0.06768
                ],
                [
                    -0.07087,
                    -0.12372,
                    1.49799
                ]
            ],
            [
                [
                    5.26881,
                    -2e-05,
                    0.03326
                ],
                [
                    0.0,
                    5.29953,
                    0.0
                ],
                [
                    0.00427,
                    -6e-05,
                    3.17446
                ]
            ],
            [
                [
                    5.26881,
                    2e-05,
                    0.03326
                ],
                [
                    0.0,
                    5.29971,
                    0.0
                ],
                [
                    0.00427,
                    6e-05,
                    3.17446
                ]
            ],
            [
                [
                    5.2622,
                    0.0,
                    -0.0316
                ],
                [
                    0.0,
                    5.30641,
                    0.0
                ],
                [
                    0.00591,
                    -2e-05,
                    3.17546
                ]
            ],
            [
                [
                    5.2622,
                    -0.0,
                    -0.0316
                ],
                [
                    0.0,
                    5.30626,
                    0.0
                ],
                [
                    0.00591,
                    2e-05,
                    3.17546
                ]
            ],
            [
                [
                    -1.64038,
                    0.00332,
                    0.33482
                ],
                [
                    -0.00115,
                    -3.36467,
                    -0.00164
                ],
                [
                    0.32294,
                    -0.00061,
                    -1.92727
                ]
            ],
            [
                [
                    -1.64041,
                    0.00328,
                    0.33486
                ],
                [
                    -0.001,
                    -3.3646,
                    -0.00163
                ],
                [
                    0.32307,
                    -0.00062,
                    -1.92724
                ]
            ],
            [
                [
                    -1.64041,
                    -0.00328,
                    0.33486
                ],
                [
                    0.00115,
                    -3.36467,
                    0.00164
                ],
                [
                    0.32307,
                    0.00062,
                    -1.92724
                ]
            ],
            [
                [
                    -1.64038,
                    -0.00332,
                    0.33482
                ],
                [
                    0.001,
                    -3.3646,
                    0.00163
                ],
                [
                    0.32294,
                    0.00061,
                    -1.92727
                ]
            ],
            [
                [
                    -2.9184,
                    -0.73191,
                    -0.17596
                ],
                [
                    -0.73422,
                    -2.08435,
                    0.29903
                ],
                [
                    -0.16808,
                    0.2849,
                    -1.95169
                ]
            ],
            [
                [
                    -2.91842,
                    -0.73194,
                    -0.17592
                ],
                [
                    -0.73416,
                    -2.08439,
                    0.29897
                ],
                [
                    -0.16801,
                    0.28489,
                    -1.95171
                ]
            ],
            [
                [
                    -2.91842,
                    0.73194,
                    -0.17592
                ],
                [
                    0.73422,
                    -2.08435,
                    -0.29903
                ],
                [
                    -0.16801,
                    -0.28489,
                    -1.95171
                ]
            ],
            [
                [
                    -2.9184,
                    0.73191,
                    -0.17596
                ],
                [
                    0.73416,
                    -2.08439,
                    -0.29897
                ],
                [
                    -0.16808,
                    -0.2849,
                    -1.95169
                ]
            ],
            [
                [
                    -2.93744,
                    -0.75352,
                    -0.16722
                ],
                [
                    -0.75996,
                    -2.07921,
                    0.28689
                ],
                [
                    -0.16259,
                    0.27545,
                    -1.92409
                ]
            ],
            [
                [
                    -2.93744,
                    -0.7535,
                    -0.16722
                ],
                [
                    -0.76004,
                    -2.07917,
                    0.28692
                ],
                [
                    -0.16257,
                    0.2755,
                    -1.92407
                ]
            ],
            [
                [
                    -2.93744,
                    0.7535,
                    -0.16722
                ],
                [
                    0.75996,
                    -2.07921,
                    -0.28689
                ],
                [
                    -0.16257,
                    -0.2755,
                    -1.92407
                ]
            ],
            [
                [
                    -2.93744,
                    0.75352,
                    -0.16722
                ],
                [
                    0.76004,
                    -2.07917,
                    -0.28692
                ],
                [
                    -0.16259,
                    -0.27545,
                    -1.92409
                ]
            ]
        ]
    },
    "band_gap": 3.5782,
    "is_direct": true,
    "formula": "K2ThO3"
}