{
    "mp_id": "mp-18914",
    "nelements": 3,
    "nsites": 14,
    "elements": [
        "K",
        "Mo",
        "O"
    ],
    "structure": {
        "@module": "pymatgen.core.structure",
        "@class": "Structure",
        "charge": null,
        "lattice": {
            "matrix": [
                [
                    6.19978899,
                    -3.05078521,
                    -0.00397986
                ],
                [
                    6.19978899,
                    3.05078521,
                    -0.00397986
                ],
                [
                    -3.28431307,
                    0.0,
                    6.83381221
                ]
            ],
            "a": 6.90975323418757,
            "b": 6.90975323418757,
            "c": 7.5820644723793995,
            "alpha": 112.90352152095012,
            "beta": 112.90352152095012,
            "gamma": 52.4016397395656,
            "volume": 258.4327631493544
        },
        "sites": [
            {
                "species": [
                    {
                        "element": "K",
                        "occu": 1
                    }
                ],
                "abc": [
                    0.48854012,
                    0.48854012,
                    0.76374635
                ],
                "xyz": [
                    3.5493091948287634,
                    0.0,
                    5.215410489408967
                ],
                "label": "K",
                "properties": {}
            },
            {
                "species": [
                    {
                        "element": "K",
                        "occu": 1
                    }
                ],
                "abc": [
                    0.51145988,
                    0.51145988,
                    0.23625365
                ],
                "xyz": [
                    5.565955715171237,
                    0.0,
                    1.610442000591033
                ],
                "label": "K",
                "properties": {}
            },
            {
                "species": [
                    {
                        "element": "K",
                        "occu": 1
                    }
                ],
                "abc": [
                    0.84379234,
                    0.84379234,
                    0.25077067
                ],
                "xyz": [
                    9.639059529703017,
                    0.0,
                    1.7070033157913356
                ],
                "label": "K",
                "properties": {}
            },
            {
                "species": [
                    {
                        "element": "K",
                        "occu": 1
                    }
                ],
                "abc": [
                    0.15620766,
                    0.15620766,
                    0.74922933
                ],
                "xyz": [
                    -0.5237946197030166,
                    0.0,
                    5.118849174208664
                ],
                "label": "K",
                "properties": {}
            },
            {
                "species": [
                    {
                        "element": "Mo",
                        "occu": 1
                    }
                ],
                "abc": [
                    0.82439978,
                    0.82439978,
                    0.77553499
                ],
                "xyz": [
                    7.675109654905525,
                    0.0,
                    5.293298492527366
                ],
                "label": "Mo",
                "properties": {}
            },
            {
                "species": [
                    {
                        "element": "Mo",
                        "occu": 1
                    }
                ],
                "abc": [
                    0.17560022,
                    0.17560022,
                    0.22446501
                ],
                "xyz": [
                    1.4401552550944752,
                    0.0,
                    1.5325539974726337
                ],
                "label": "Mo",
                "properties": {}
            },
            {
                "species": [
                    {
                        "element": "O",
                        "occu": 1
                    }
                ],
                "abc": [
                    0.09769404,
                    0.61906302,
                    0.9263901
                ],
                "xyz": [
                    1.401187415744162,
                    1.5905847731367857,
                    6.327923383850308
                ],
                "label": "O",
                "properties": {}
            },
            {
                "species": [
                    {
                        "element": "O",
                        "occu": 1
                    }
                ],
                "abc": [
                    0.38093698,
                    0.90230596,
                    0.0736099
                ],
                "xyz": [
                    7.714077494255837,
                    1.5905847731367857,
                    0.49792910614969055
                ],
                "label": "O",
                "properties": {}
            },
            {
                "species": [
                    {
                        "element": "O",
                        "occu": 1
                    }
                ],
                "abc": [
                    0.90230596,
                    0.38093698,
                    0.0736099
                ],
                "xyz": [
                    7.714077494255837,
                    -1.5905847731367857,
                    0.49792910614969055
                ],
                "label": "O",
                "properties": {}
            },
            {
                "species": [
                    {
                        "element": "O",
                        "occu": 1
                    }
                ],
                "abc": [
                    0.61906302,
                    0.09769404,
                    0.9263901
                ],
                "xyz": [
                    1.401187415744162,
                    -1.5905847731367857,
                    6.327923383850308
                ],
                "label": "O",
                "properties": {}
            },
            {
                "species": [
                    {
                        "element": "O",
                        "occu": 1
                    }
                ],
                "abc": [
                    0.08854047,
                    0.08854047,
                    0.3611687
                ],
                "xyz": [
                    -0.08832661973405842,
                    0.0,
                    2.4674543145799586
                ],
                "label": "O",
                "properties": {}
            },
            {
                "species": [
                    {
                        "element": "O",
                        "occu": 1
                    }
                ],
                "abc": [
                    0.91145953,
                    0.91145953,
                    0.6388313
                ],
                "xyz": [
                    9.203591529734059,
                    0.0,
                    4.358398175420041
                ],
                "label": "O",
                "properties": {}
            },
            {
                "species": [
                    {
                        "element": "O",
                        "occu": 1
                    }
                ],
                "abc": [
                    0.66664201,
                    0.66664201,
                    0.62007268
                ],
                "xyz": [
                    6.229566780465012,
                    0.0,
                    4.232153967931586
                ],
                "label": "O",
                "properties": {}
            },
            {
                "species": [
                    {
                        "element": "O",
                        "occu": 1
                    }
                ],
                "abc": [
                    0.33335799,
                    0.33335799,
                    0.37992732
                ],
                "xyz": [
                    2.8856981295349877,
                    0.0,
                    2.5936985220684146
                ],
                "label": "O",
                "properties": {}
            }
        ]
    },
    "spacegroup": {
        "source": "spglib",
        "symbol": "C2/m",
        "number": 12,
        "point_group": "2/m",
        "crystal_system": "monoclinic",
        "hall": "-C 2y"
    },
    "dielectric": {
        "epsilon_ionic": [
            [
                3.40736349,
                -1.2e-07,
                -0.19391414
            ],
            [
                -1.2e-07,
                10.63121164,
                1.6e-07
            ],
            [
                -0.19391414,
                1.6e-07,
                2.52269457
            ]
        ],
        "epsilon_ionic_avg": 5.520423233333335,
        "epsilon_ionic_eig": [
            3.448001563582841,
            2.482056496417154,
            10.631211640000009
        ],
        "epsilon_electronic": [
            [
                2.69676942,
                0.0,
                0.00391263
            ],
            [
                0.0,
                2.73140978,
                0.0
            ],
            [
                0.00391136,
                0.0,
                2.69919771
            ]
        ],
        "epsilon_electronic_avg": 2.7091256366666663,
        "epsilon_electronic_eig": [
            2.693887487295924,
            2.7020796427040756,
            2.73140978
        ]
    },
    "phonon": {
        "lowest_freq": -0.08912729963740121,
        "frequency": [
            -0.08912729963740121,
            -0.0609845935753612,
            -0.01799981949508308,
            1.1907525784133548,
            1.393949477369904,
            1.7852533189774933,
            1.9009575571881792,
            2.1475305696046676,
            2.1528924935504787,
            2.478554358388833,
            2.9296426706511225,
            3.0858853006795193,
            3.3678021847478004,
            3.666164472072493,
            3.7230380651816044,
            3.8008100984666138,
            4.021854835550384,
            4.224927215735933,
            4.411137246132133,
            4.5985383503177655,
            4.719307155104696,
            4.820252187291492,
            4.90923686682652,
            5.15900770932619,
            8.772689884816005,
            9.00510987896543,
            9.12452616694309,
            9.258211067604634,
            9.420345481309171,
            9.442724303452852,
            9.465094497534981,
            9.750478112673195,
            10.080688786619469,
            10.457566175118556,
            24.30286516021748,
            24.31246941852657,
            24.34334027561742,
            24.36007303430601,
            24.652624484772485,
            25.167131227671213,
            26.167987280172916,
            26.185558902837574
        ]
    },
    "born_effective_charge": {
        "avg_abs_trace": 1.5936507142857146,
        "tensors": [
            [
                [
                    1.26727,
                    -0.0,
                    0.12885
                ],
                [
                    -0.0,
                    1.3681,
                    3e-05
                ],
                [
                    0.22003,
                    0.0,
                    1.28507
                ]
            ],
            [
                [
                    1.26727,
                    -0.0,
                    0.12892
                ],
                [
                    0.0,
                    1.3681,
                    -3e-05
                ],
                [
                    0.22014,
                    0.0,
                    1.28488
                ]
            ],
            [
                [
                    1.29745,
                    -0.0,
                    -0.14156
                ],
                [
                    -1e-05,
                    1.13582,
                    -1e-05
                ],
                [
                    -0.21922,
                    0.0,
                    1.23761
                ]
            ],
            [
                [
                    1.29736,
                    -0.0,
                    -0.14161
                ],
                [
                    1e-05,
                    1.13582,
                    1e-05
                ],
                [
                    -0.21918,
                    0.0,
                    1.23763
                ]
            ],
            [
                [
                    3.02211,
                    -0.0,
                    0.07732
                ],
                [
                    -3e-05,
                    3.05877,
                    0.00015
                ],
                [
                    0.04808,
                    0.0,
                    3.06123
                ]
            ],
            [
                [
                    3.02204,
                    -0.0,
                    0.07737
                ],
                [
                    3e-05,
                    3.05877,
                    -0.00015
                ],
                [
                    0.04841,
                    0.0,
                    3.06137
                ]
            ],
            [
                [
                    -0.75734,
                    -0.05557,
                    0.00207
                ],
                [
                    -0.12571,
                    -2.06859,
                    0.86779
                ],
                [
                    0.02504,
                    0.82112,
                    -1.34864
                ]
            ],
            [
                [
                    -0.75716,
                    0.05602,
                    0.00245
                ],
                [
                    0.12571,
                    -2.06859,
                    -0.86779
                ],
                [
                    0.02494,
                    -0.82163,
                    -1.34889
                ]
            ],
            [
                [
                    -0.75716,
                    -0.05602,
                    0.00245
                ],
                [
                    -0.12564,
                    -2.06836,
                    0.86791
                ],
                [
                    0.02494,
                    0.82163,
                    -1.34889
                ]
            ],
            [
                [
                    -0.75734,
                    0.05557,
                    0.00207
                ],
                [
                    0.12564,
                    -2.06836,
                    -0.86791
                ],
                [
                    0.02504,
                    -0.82112,
                    -1.34864
                ]
            ],
            [
                [
                    -2.11947,
                    -0.0,
                    0.77458
                ],
                [
                    -4e-05,
                    -0.69101,
                    -0.00013
                ],
                [
                    0.8192,
                    0.0,
                    -1.37996
                ]
            ],
            [
                [
                    -2.11895,
                    -0.0,
                    0.77415
                ],
                [
                    4e-05,
                    -0.69101,
                    0.00013
                ],
                [
                    0.81981,
                    0.0,
                    -1.38054
                ]
            ],
            [
                [
                    -1.95319,
                    -0.0,
                    -0.84356
                ],
                [
                    0.00024,
                    -0.73474,
                    0.00031
                ],
                [
                    -0.91784,
                    0.0,
                    -1.50577
                ]
            ],
            [
                [
                    -1.95287,
                    -0.0,
                    -0.84351
                ],
                [
                    -0.00024,
                    -0.73474,
                    -0.00031
                ],
                [
                    -0.91939,
                    0.0,
                    -1.50645
                ]
            ]
        ]
    },
    "band_gap": 4.229,
    "is_direct": false,
    "formula": "K2MoO4"
}