{
    "mp_id": "mp-11321",
    "nelements": 3,
    "nsites": 22,
    "elements": [
        "O",
        "Ta",
        "Y"
    ],
    "structure": {
        "@module": "pymatgen.core.structure",
        "@class": "Structure",
        "charge": null,
        "lattice": {
            "matrix": [
                [
                    3.72128939,
                    -5.22520548,
                    0.0
                ],
                [
                    3.72128939,
                    5.22520548,
                    0.0
                ],
                [
                    0.0,
                    0.0,
                    7.41899579
                ]
            ],
            "a": 6.414886361608333,
            "b": 6.414886361608333,
            "c": 7.41899579,
            "alpha": 90.0,
            "beta": 90.0,
            "gamma": 109.08454427696664,
            "volume": 288.51735269914985
        },
        "sites": [
            {
                "species": [
                    {
                        "element": "Y",
                        "occu": 1
                    }
                ],
                "abc": [
                    2.86e-06,
                    0.53474271,
                    0.24332304
                ],
                "xyz": [
                    1.989943015990502,
                    2.7941255945943775,
                    1.8052126093700016
                ],
                "label": "Y",
                "properties": {}
            },
            {
                "species": [
                    {
                        "element": "Y",
                        "occu": 1
                    }
                ],
                "abc": [
                    0.99999714,
                    0.46525729,
                    0.74332304
                ],
                "xyz": [
                    5.452635764009497,
                    -2.7941255945943775,
                    5.514710504370002
                ],
                "label": "Y",
                "properties": {}
            },
            {
                "species": [
                    {
                        "element": "Y",
                        "occu": 1
                    }
                ],
                "abc": [
                    0.53474271,
                    2.86e-06,
                    0.75667696
                ],
                "xyz": [
                    1.989943015990502,
                    -2.7941255945943775,
                    5.613783180629999
                ],
                "label": "Y",
                "properties": {}
            },
            {
                "species": [
                    {
                        "element": "Y",
                        "occu": 1
                    }
                ],
                "abc": [
                    0.46525729,
                    0.99999714,
                    0.25667696
                ],
                "xyz": [
                    5.452635764009497,
                    2.7941255945943775,
                    1.9042852856299985
                ],
                "label": "Y",
                "properties": {}
            },
            {
                "species": [
                    {
                        "element": "Y",
                        "occu": 1
                    }
                ],
                "abc": [
                    0.47311855,
                    0.47311855,
                    0.0
                ],
                "xyz": [
                    3.5212220806543693,
                    0.0,
                    0.0
                ],
                "label": "Y",
                "properties": {}
            },
            {
                "species": [
                    {
                        "element": "Y",
                        "occu": 1
                    }
                ],
                "abc": [
                    0.52688145,
                    0.52688145,
                    0.5
                ],
                "xyz": [
                    3.9213566993456306,
                    0.0,
                    3.709497895
                ],
                "label": "Y",
                "properties": {}
            },
            {
                "species": [
                    {
                        "element": "Ta",
                        "occu": 1
                    }
                ],
                "abc": [
                    0.99933025,
                    0.99933025,
                    0.0
                ],
                "xyz": [
                    7.437594112862095,
                    0.0,
                    0.0
                ],
                "label": "Ta",
                "properties": {}
            },
            {
                "species": [
                    {
                        "element": "Ta",
                        "occu": 1
                    }
                ],
                "abc": [
                    0.00066975,
                    0.00066975,
                    0.5
                ],
                "xyz": [
                    0.004984667137905,
                    0.0,
                    3.709497895
                ],
                "label": "Ta",
                "properties": {}
            },
            {
                "species": [
                    {
                        "element": "O",
                        "occu": 1
                    }
                ],
                "abc": [
                    0.93031131,
                    0.06968869,
                    0.75
                ],
                "xyz": [
                    3.72128939,
                    -4.496930030235957,
                    5.5642468425
                ],
                "label": "O",
                "properties": {}
            },
            {
                "species": [
                    {
                        "element": "O",
                        "occu": 1
                    }
                ],
                "abc": [
                    0.06968869,
                    0.93031131,
                    0.25
                ],
                "xyz": [
                    3.72128939,
                    4.496930030235957,
                    1.8547489475
                ],
                "label": "O",
                "properties": {}
            },
            {
                "species": [
                    {
                        "element": "O",
                        "occu": 1
                    }
                ],
                "abc": [
                    0.36150667,
                    0.63849333,
                    0.25
                ],
                "xyz": [
                    3.72128939,
                    1.4473122137188965,
                    1.8547489475
                ],
                "label": "O",
                "properties": {}
            },
            {
                "species": [
                    {
                        "element": "O",
                        "occu": 1
                    }
                ],
                "abc": [
                    0.63849333,
                    0.36150667,
                    0.75
                ],
                "xyz": [
                    3.72128939,
                    -1.4473122137188965,
                    5.5642468425
                ],
                "label": "O",
                "properties": {}
            },
            {
                "species": [
                    {
                        "element": "O",
                        "occu": 1
                    }
                ],
                "abc": [
                    0.37091713,
                    0.62908287,
                    0.75
                ],
                "xyz": [
                    3.72128939,
                    1.348969039396255,
                    5.5642468425
                ],
                "label": "O",
                "properties": {}
            },
            {
                "species": [
                    {
                        "element": "O",
                        "occu": 1
                    }
                ],
                "abc": [
                    0.62908287,
                    0.37091713,
                    0.25
                ],
                "xyz": [
                    3.72128939,
                    -1.348969039396255,
                    1.8547489475
                ],
                "label": "O",
                "properties": {}
            },
            {
                "species": [
                    {
                        "element": "O",
                        "occu": 1
                    }
                ],
                "abc": [
                    0.32907823,
                    0.08242014,
                    0.9738568
                ],
                "xyz": [
                    1.5313045182832943,
                    -1.2888392035543332,
                    7.225039499262872
                ],
                "label": "O",
                "properties": {}
            },
            {
                "species": [
                    {
                        "element": "O",
                        "occu": 1
                    }
                ],
                "abc": [
                    0.67092177,
                    0.91757986,
                    0.4738568
                ],
                "xyz": [
                    5.911274261716706,
                    1.2888392035543332,
                    3.5155416042628724
                ],
                "label": "O",
                "properties": {}
            },
            {
                "species": [
                    {
                        "element": "O",
                        "occu": 1
                    }
                ],
                "abc": [
                    0.3141357,
                    0.05739668,
                    0.54046028
                ],
                "xyz": [
                    1.3825795037354482,
                    -1.3415141342338295,
                    4.009672541982222
                ],
                "label": "O",
                "properties": {}
            },
            {
                "species": [
                    {
                        "element": "O",
                        "occu": 1
                    }
                ],
                "abc": [
                    0.6858643,
                    0.94260332,
                    0.04046028
                ],
                "xyz": [
                    6.059999276264552,
                    1.3415141342338295,
                    0.30017464698222124
                ],
                "label": "O",
                "properties": {}
            },
            {
                "species": [
                    {
                        "element": "O",
                        "occu": 1
                    }
                ],
                "abc": [
                    0.05739668,
                    0.3141357,
                    0.45953972
                ],
                "xyz": [
                    1.3825795037354482,
                    1.3415141342338295,
                    3.409323248017779
                ],
                "label": "O",
                "properties": {}
            },
            {
                "species": [
                    {
                        "element": "O",
                        "occu": 1
                    }
                ],
                "abc": [
                    0.94260332,
                    0.6858643,
                    0.95953972
                ],
                "xyz": [
                    6.059999276264552,
                    -1.3415141342338295,
                    7.118821143017779
                ],
                "label": "O",
                "properties": {}
            },
            {
                "species": [
                    {
                        "element": "O",
                        "occu": 1
                    }
                ],
                "abc": [
                    0.91757986,
                    0.67092177,
                    0.5261432
                ],
                "xyz": [
                    5.911274261716706,
                    -1.2888392035543332,
                    3.9034541857371283
                ],
                "label": "O",
                "properties": {}
            },
            {
                "species": [
                    {
                        "element": "O",
                        "occu": 1
                    }
                ],
                "abc": [
                    0.08242014,
                    0.32907823,
                    0.0261432
                ],
                "xyz": [
                    1.5313045182832943,
                    1.2888392035543332,
                    0.193956290737128
                ],
                "label": "O",
                "properties": {}
            }
        ]
    },
    "spacegroup": {
        "source": "spglib",
        "symbol": "C222_1",
        "number": 20,
        "point_group": "222",
        "crystal_system": "orthorhombic",
        "hall": "C 2c 2"
    },
    "dielectric": {
        "epsilon_ionic": [
            [
                20.87490262,
                0.0,
                -0.0
            ],
            [
                0.0,
                15.95388172,
                0.0
            ],
            [
                -0.0,
                0.0,
                15.51549063
            ]
        ],
        "epsilon_ionic_avg": 17.448091656666666,
        "epsilon_ionic_eig": [
            20.87490262,
            15.95388172,
            15.51549063
        ],
        "epsilon_electronic": [
            [
                4.58232793,
                0.0,
                0.0
            ],
            [
                0.0,
                4.5607463,
                0.0
            ],
            [
                0.0,
                0.0,
                4.37625115
            ]
        ],
        "epsilon_electronic_avg": 4.506441793333333,
        "epsilon_electronic_eig": [
            4.58232793,
            4.5607463,
            4.37625115
        ]
    },
    "phonon": {
        "lowest_freq": -0.0397599273212097,
        "frequency": [
            -0.0397599273212097,
            -0.01895462026739613,
            -0.01666454146472495,
            2.5427496643407377,
            2.714334111549768,
            2.9227110591240173,
            2.999815629128882,
            3.2843244263537272,
            3.3595729533472385,
            4.041146084714414,
            4.21539119240258,
            4.2282823071925,
            4.269702729426904,
            4.632547750359693,
            4.6748263650240585,
            4.925464323353426,
            5.256293466403449,
            5.458046221694655,
            5.6187037601117495,
            6.045026646773661,
            6.321875627730373,
            6.606794028975856,
            6.6387710334271794,
            6.988560013214568,
            7.040200678522468,
            7.222016510301994,
            7.503322355580826,
            7.902192179265691,
            8.12070881482728,
            8.273039697940074,
            8.588067265619307,
            8.732337160835474,
            9.091795347026403,
            9.13284236380301,
            9.21441763434336,
            9.357028952648152,
            9.550437880743207,
            9.571669629769621,
            9.942802378927123,
            10.47104002373307,
            10.625004655585638,
            10.661722803952339,
            11.220574118211909,
            11.562597410622848,
            11.885579894099386,
            11.90970470766222,
            12.077590725788513,
            12.23734074125558,
            13.134858163396935,
            13.20473200481683,
            14.054095736286115,
            14.102813033289703,
            14.438750010144439,
            14.484663842476763,
            14.93431177466333,
            15.725096394588364,
            15.822167608195391,
            17.124882635915156,
            17.56664276231745,
            18.562640475783798,
            19.078329642588166,
            19.955117483563626,
            20.544790860092263,
            20.894530521510923,
            22.736008858432804,
            25.692909158881136
        ]
    },
    "born_effective_charge": {
        "avg_abs_trace": 3.322973484848485,
        "tensors": [
            [
                [
                    3.80897,
                    0.02756,
                    -0.1895
                ],
                [
                    -0.2167,
                    4.27503,
                    -0.01505
                ],
                [
                    -0.07556,
                    0.03259,
                    3.76461
                ]
            ],
            [
                [
                    3.80914,
                    0.02766,
                    0.18949
                ],
                [
                    -0.21666,
                    4.27488,
                    0.015
                ],
                [
                    0.07556,
                    -0.03259,
                    3.76461
                ]
            ],
            [
                [
                    3.80897,
                    -0.02756,
                    0.1895
                ],
                [
                    0.21666,
                    4.27488,
                    -0.015
                ],
                [
                    0.07557,
                    0.03265,
                    3.76462
                ]
            ],
            [
                [
                    3.80914,
                    -0.02766,
                    -0.18949
                ],
                [
                    0.2167,
                    4.27503,
                    0.01505
                ],
                [
                    -0.07557,
                    -0.03265,
                    3.76462
                ]
            ],
            [
                [
                    3.77749,
                    0.0,
                    0.0
                ],
                [
                    9e-05,
                    3.51577,
                    0.05795
                ],
                [
                    0.00012,
                    0.02684,
                    4.16066
                ]
            ],
            [
                [
                    3.77751,
                    0.0,
                    0.0
                ],
                [
                    -9e-05,
                    3.51577,
                    -0.05795
                ],
                [
                    -0.00012,
                    -0.02684,
                    4.16066
                ]
            ],
            [
                [
                    6.99148,
                    0.0,
                    0.0
                ],
                [
                    -4e-05,
                    6.46345,
                    -0.51962
                ],
                [
                    2e-05,
                    -1.12476,
                    6.22291
                ]
            ],
            [
                [
                    6.99157,
                    0.0,
                    0.0
                ],
                [
                    4e-05,
                    6.46345,
                    0.51962
                ],
                [
                    -2e-05,
                    1.12476,
                    6.22291
                ]
            ],
            [
                [
                    -1.59358,
                    3e-05,
                    0.01721
                ],
                [
                    -0.0,
                    -2.07747,
                    0.0
                ],
                [
                    0.01762,
                    -0.00016,
                    -4.40533
                ]
            ],
            [
                [
                    -1.59358,
                    -3e-05,
                    -0.01721
                ],
                [
                    -0.0,
                    -2.07753,
                    0.0
                ],
                [
                    -0.01762,
                    0.00016,
                    -4.40533
                ]
            ],
            [
                [
                    -2.82448,
                    -8e-05,
                    -0.15905
                ],
                [
                    -0.0,
                    -2.74409,
                    0.0
                ],
                [
                    -0.12453,
                    -4e-05,
                    -2.29981
                ]
            ],
            [
                [
                    -2.82448,
                    8e-05,
                    0.15905
                ],
                [
                    -0.0,
                    -2.74399,
                    0.0
                ],
                [
                    0.12453,
                    4e-05,
                    -2.29981
                ]
            ],
            [
                [
                    -2.83148,
                    2e-05,
                    0.11478
                ],
                [
                    -0.0,
                    -2.44094,
                    0.0
                ],
                [
                    0.14204,
                    -4e-05,
                    -2.49127
                ]
            ],
            [
                [
                    -2.83148,
                    -2e-05,
                    -0.11478
                ],
                [
                    -0.0,
                    -2.44092,
                    0.0
                ],
                [
                    -0.14204,
                    4e-05,
                    -2.49127
                ]
            ],
            [
                [
                    -2.91101,
                    0.85352,
                    0.09816
                ],
                [
                    0.82939,
                    -2.74605,
                    -0.1465
                ],
                [
                    0.26528,
                    -0.32145,
                    -2.1511
                ]
            ],
            [
                [
                    -2.91088,
                    0.85361,
                    -0.09812
                ],
                [
                    0.82946,
                    -2.74607,
                    0.14653
                ],
                [
                    -0.26528,
                    0.32145,
                    -2.1511
                ]
            ],
            [
                [
                    -2.65794,
                    1.25896,
                    -0.23108
                ],
                [
                    1.19709,
                    -2.88728,
                    0.25084
                ],
                [
                    -0.31192,
                    0.36035,
                    -2.20708
                ]
            ],
            [
                [
                    -2.65776,
                    1.25898,
                    0.23098
                ],
                [
                    1.19722,
                    -2.88726,
                    -0.25093
                ],
                [
                    0.31192,
                    -0.36035,
                    -2.20708
                ]
            ],
            [
                [
                    -2.65794,
                    -1.25896,
                    0.23108
                ],
                [
                    -1.19722,
                    -2.88726,
                    0.25093
                ],
                [
                    0.31209,
                    0.36053,
                    -2.2071
                ]
            ],
            [
                [
                    -2.65776,
                    -1.25898,
                    -0.23098
                ],
                [
                    -1.19709,
                    -2.88728,
                    -0.25084
                ],
                [
                    -0.31209,
                    -0.36053,
                    -2.2071
                ]
            ],
            [
                [
                    -2.91088,
                    -0.85361,
                    0.09812
                ],
                [
                    -0.82939,
                    -2.74605,
                    0.1465
                ],
                [
                    0.26515,
                    0.32127,
                    -2.15111
                ]
            ],
            [
                [
                    -2.91101,
                    -0.85352,
                    -0.09816
                ],
                [
                    -0.82946,
                    -2.74607,
                    -0.14653
                ],
                [
                    -0.26515,
                    -0.32127,
                    -2.15111
                ]
            ]
        ]
    },
    "band_gap": 3.8207,
    "is_direct": false,
    "formula": "Y3TaO7"
}