{
    "mp_id": "mp-18834",
    "nelements": 3,
    "nsites": 12,
    "elements": [
        "Mo",
        "O",
        "Sr"
    ],
    "structure": {
        "@module": "pymatgen.core.structure",
        "@class": "Structure",
        "charge": null,
        "lattice": {
            "matrix": [
                [
                    -2.70041841,
                    2.7004184,
                    5.97263292
                ],
                [
                    2.70041841,
                    -2.7004184,
                    5.97263292
                ],
                [
                    2.7004184,
                    2.70041841,
                    -5.97263292
                ]
            ],
            "a": 7.089207510095414,
            "b": 7.089207510095414,
            "c": 7.089207510095414,
            "alpha": 135.21868161163178,
            "beta": 135.21868161163178,
            "gamma": 65.19060694971142,
            "volume": 174.21595808624295
        },
        "sites": [
            {
                "species": [
                    {
                        "element": "Sr",
                        "occu": 1
                    }
                ],
                "abc": [
                    0.0,
                    0.0,
                    0.0
                ],
                "xyz": [
                    0.0,
                    0.0,
                    0.0
                ],
                "label": "Sr",
                "properties": {}
            },
            {
                "species": [
                    {
                        "element": "Sr",
                        "occu": 1
                    }
                ],
                "abc": [
                    0.75,
                    0.25,
                    0.5
                ],
                "xyz": [
                    -4.99999974756804e-09,
                    2.700418405,
                    2.98631646
                ],
                "label": "Sr",
                "properties": {}
            },
            {
                "species": [
                    {
                        "element": "Mo",
                        "occu": 1
                    }
                ],
                "abc": [
                    0.5,
                    0.5,
                    0.0
                ],
                "xyz": [
                    0.0,
                    0.0,
                    5.97263292
                ],
                "label": "Mo",
                "properties": {}
            },
            {
                "species": [
                    {
                        "element": "Mo",
                        "occu": 1
                    }
                ],
                "abc": [
                    0.25,
                    0.75,
                    0.5
                ],
                "xyz": [
                    2.7004184049999997,
                    4.999999969612645e-09,
                    2.98631646
                ],
                "label": "Mo",
                "properties": {}
            },
            {
                "species": [
                    {
                        "element": "O",
                        "occu": 1
                    }
                ],
                "abc": [
                    0.30869801,
                    0.90552503,
                    0.8798434
                ],
                "xyz": [
                    3.9876279788719984,
                    0.7642626488518265,
                    1.9971268456417492
                ],
                "label": "O",
                "properties": {}
            },
            {
                "species": [
                    {
                        "element": "O",
                        "occu": 1
                    }
                ],
                "abc": [
                    0.72431837,
                    0.8211454,
                    0.3798434
                ],
                "xyz": [
                    1.2872096008761826,
                    0.7642626168476421,
                    6.96182259408458
                ],
                "label": "O",
                "properties": {}
            },
            {
                "species": [
                    {
                        "element": "O",
                        "occu": 1
                    }
                ],
                "abc": [
                    0.5711454,
                    0.69130199,
                    0.59682702
                ],
                "xyz": [
                    1.93615573414399,
                    1.2872096058761824,
                    3.9755061340845805
                ],
                "label": "O",
                "properties": {}
            },
            {
                "species": [
                    {
                        "element": "O",
                        "occu": 1
                    }
                ],
                "abc": [
                    0.09447497,
                    0.97431837,
                    0.40317298
                ],
                "xyz": [
                    3.4646810488518263,
                    -1.2872095688719982,
                    3.975506074358251
                ],
                "label": "O",
                "properties": {}
            },
            {
                "species": [
                    {
                        "element": "O",
                        "occu": 1
                    }
                ],
                "abc": [
                    0.65552503,
                    0.27568163,
                    0.09682702
                ],
                "xyz": [
                    -0.764262643851826,
                    1.2872095738719982,
                    4.983443305641749
                ],
                "label": "O",
                "properties": {}
            },
            {
                "species": [
                    {
                        "element": "O",
                        "occu": 1
                    }
                ],
                "abc": [
                    0.44130199,
                    0.34447497,
                    0.6201566
                ],
                "xyz": [
                    1.413208826128002,
                    1.936155766148174,
                    0.989189614358251
                ],
                "label": "O",
                "properties": {}
            },
            {
                "species": [
                    {
                        "element": "O",
                        "occu": 1
                    }
                ],
                "abc": [
                    0.02568163,
                    0.4288546,
                    0.1201566
                ],
                "xyz": [
                    1.4132088041238178,
                    -0.764262611847642,
                    1.9971267859154196
                ],
                "label": "O",
                "properties": {}
            },
            {
                "species": [
                    {
                        "element": "O",
                        "occu": 1
                    }
                ],
                "abc": [
                    0.1788546,
                    0.55869801,
                    0.90317298
                ],
                "xyz": [
                    3.4646810708560105,
                    1.4132088091238177,
                    -0.9891896740845807
                ],
                "label": "O",
                "properties": {}
            }
        ]
    },
    "spacegroup": {
        "source": "spglib",
        "symbol": "I4_1/a",
        "number": 88,
        "point_group": "4/m",
        "crystal_system": "tetragonal",
        "hall": "I 4bw -1bw"
    },
    "dielectric": {
        "epsilon_ionic": [
            [
                7.08780886,
                -0.00030061,
                -0.0
            ],
            [
                -0.00030061,
                7.08789293,
                -0.0
            ],
            [
                -0.0,
                -0.0,
                4.72035663
            ]
        ],
        "epsilon_ionic_avg": 6.29868614,
        "epsilon_ionic_eig": [
            7.087547360301283,
            7.088154429698717,
            4.72035663
        ],
        "epsilon_electronic": [
            [
                3.77945853,
                -2.7e-07,
                0.0
            ],
            [
                2.7e-07,
                3.77945853,
                -0.0
            ],
            [
                0.0,
                0.0,
                3.81545929
            ]
        ],
        "epsilon_electronic_avg": 3.7914587833333333,
        "epsilon_electronic_eig": [
            3.77945853,
            3.77945853,
            3.81545929
        ]
    },
    "phonon": {
        "lowest_freq": -0.025609915300776137,
        "frequency": [
            -0.025609915300776137,
            -0.025609915300776137,
            -0.015795422692385,
            2.547524471979552,
            3.3245744783635987,
            3.3245744783635987,
            3.6785776926895486,
            3.6785776926895486,
            4.082164190105341,
            4.082164190105341,
            4.517294151915503,
            4.779075628974523,
            4.7970451848061035,
            4.7970451848061035,
            5.444978297324836,
            6.724484614704941,
            6.946029120008854,
            6.946029120008854,
            7.279675051010324,
            8.95528015571742,
            8.95528015571742,
            9.421085838114585,
            9.517133872214732,
            10.450652124573285,
            10.809267709971664,
            10.809267709971664,
            11.587446923230553,
            11.65878942021399,
            23.115069451437954,
            23.413639885739823,
            23.413639885739823,
            23.622051082122915,
            23.622051082122915,
            24.68846066149183,
            25.889665230591902,
            25.901593545269066
        ]
    },
    "born_effective_charge": {
        "avg_abs_trace": 2.370571111111111,
        "tensors": [
            [
                [
                    3.00872,
                    -0.16584,
                    -0.00017
                ],
                [
                    0.16575,
                    3.00871,
                    -0.0001
                ],
                [
                    0.0,
                    0.0,
                    2.76954
                ]
            ],
            [
                [
                    3.00872,
                    -0.16584,
                    0.00017
                ],
                [
                    0.16575,
                    3.00871,
                    0.0001
                ],
                [
                    0.0,
                    0.0,
                    2.76954
                ]
            ],
            [
                [
                    4.05663,
                    0.26852,
                    -2e-05
                ],
                [
                    -0.26861,
                    4.05665,
                    0.0001
                ],
                [
                    0.0,
                    0.0,
                    4.43488
                ]
            ],
            [
                [
                    4.05663,
                    0.26852,
                    2e-05
                ],
                [
                    -0.26861,
                    4.05665,
                    -0.0001
                ],
                [
                    0.0,
                    0.0,
                    4.43488
                ]
            ],
            [
                [
                    -2.09363,
                    -0.76441,
                    0.79953
                ],
                [
                    -0.71308,
                    -1.43883,
                    0.55826
                ],
                [
                    0.90412,
                    0.46305,
                    -1.80106
                ]
            ],
            [
                [
                    -2.09363,
                    -0.76441,
                    -0.79953
                ],
                [
                    -0.71308,
                    -1.43883,
                    -0.55826
                ],
                [
                    -0.90413,
                    -0.46293,
                    -1.80115
                ]
            ],
            [
                [
                    -1.43874,
                    0.71287,
                    0.55838
                ],
                [
                    0.76463,
                    -2.09382,
                    -0.79959
                ],
                [
                    0.46293,
                    -0.90413,
                    -1.80115
                ]
            ],
            [
                [
                    -1.43906,
                    0.71347,
                    -0.55825
                ],
                [
                    0.76443,
                    -2.09372,
                    0.7995
                ],
                [
                    -0.46293,
                    0.90413,
                    -1.80115
                ]
            ],
            [
                [
                    -1.43874,
                    0.71287,
                    -0.55838
                ],
                [
                    0.76463,
                    -2.09382,
                    0.79959
                ],
                [
                    -0.46305,
                    0.90412,
                    -1.80106
                ]
            ],
            [
                [
                    -2.09393,
                    -0.7646,
                    0.79951
                ],
                [
                    -0.71311,
                    -1.439,
                    0.55839
                ],
                [
                    0.90413,
                    0.46293,
                    -1.80115
                ]
            ],
            [
                [
                    -2.09393,
                    -0.7646,
                    -0.79951
                ],
                [
                    -0.71311,
                    -1.439,
                    -0.55839
                ],
                [
                    -0.90412,
                    -0.46305,
                    -1.80106
                ]
            ],
            [
                [
                    -1.43906,
                    0.71347,
                    0.55825
                ],
                [
                    0.76443,
                    -2.09372,
                    -0.7995
                ],
                [
                    0.46305,
                    -0.90412,
                    -1.80106
                ]
            ]
        ]
    },
    "band_gap": 3.6615,
    "is_direct": true,
    "formula": "SrMoO4"
}