{
    "mp_id": "mp-1192091",
    "nelements": 3,
    "nsites": 22,
    "elements": [
        "B",
        "Cd",
        "O"
    ],
    "structure": {
        "@module": "pymatgen.core.structure",
        "@class": "Structure",
        "charge": null,
        "lattice": {
            "matrix": [
                [
                    6.12633211,
                    0.00034466,
                    -0.00034853
                ],
                [
                    0.81359285,
                    6.12356908,
                    0.00115877
                ],
                [
                    1.21256645,
                    1.61315377,
                    7.18439451
                ]
            ],
            "a": 6.1263321296090965,
            "b": 6.177380751244907,
            "c": 7.462446445814466,
            "alpha": 76.3572214936391,
            "beta": 80.6510702218093,
            "gamma": 82.42863978201504,
            "volume": 269.5113530997549
        },
        "sites": [
            {
                "species": [
                    {
                        "element": "Cd",
                        "occu": 1
                    }
                ],
                "abc": [
                    0.27078088,
                    0.93625553,
                    0.44103715
                ],
                "xyz": [
                    2.9554112561926345,
                    6.444779483057669,
                    3.169575408726438
                ],
                "label": "Cd",
                "properties": {}
            },
            {
                "species": [
                    {
                        "element": "Cd",
                        "occu": 1
                    }
                ],
                "abc": [
                    0.72921912,
                    0.06374447,
                    0.55896285
                ],
                "xyz": [
                    5.197080153807366,
                    1.2922880269423314,
                    4.015629341273561
                ],
                "label": "Cd",
                "properties": {}
            },
            {
                "species": [
                    {
                        "element": "Cd",
                        "occu": 1
                    }
                ],
                "abc": [
                    0.624059,
                    0.23993341,
                    0.99828159
                ],
                "xyz": [
                    5.228883560773264,
                    3.0798456093399973,
                    7.172109298984307
                ],
                "label": "Cd",
                "properties": {}
            },
            {
                "species": [
                    {
                        "element": "Cd",
                        "occu": 1
                    }
                ],
                "abc": [
                    0.375941,
                    0.76006659,
                    0.00171841
                ],
                "xyz": [
                    2.9236078492267366,
                    4.657221900660002,
                    0.013095451015693399
                ],
                "label": "Cd",
                "properties": {}
            },
            {
                "species": [
                    {
                        "element": "Cd",
                        "occu": 1
                    }
                ],
                "abc": [
                    0.86828388,
                    0.55635813,
                    0.29451478
                ],
                "xyz": [
                    6.129163152503889,
                    3.882294332674422,
                    2.116252436675461
                ],
                "label": "Cd",
                "properties": {}
            },
            {
                "species": [
                    {
                        "element": "Cd",
                        "occu": 1
                    }
                ],
                "abc": [
                    0.13171612,
                    0.44364187,
                    0.70548522
                ],
                "xyz": [
                    2.023328257496112,
                    3.854773177325578,
                    5.068952313324539
                ],
                "label": "Cd",
                "properties": {}
            },
            {
                "species": [
                    {
                        "element": "B",
                        "occu": 1
                    }
                ],
                "abc": [
                    0.61986691,
                    0.5648695,
                    0.63808631
                ],
                "xyz": [
                    5.030806392752855,
                    4.4885623843261495,
                    4.58470229408653
                ],
                "label": "B",
                "properties": {}
            },
            {
                "species": [
                    {
                        "element": "B",
                        "occu": 1
                    }
                ],
                "abc": [
                    0.38013309,
                    0.4351305,
                    0.36191369
                ],
                "xyz": [
                    3.1216850172471453,
                    3.2485051256738506,
                    2.600502455913469
                ],
                "label": "B",
                "properties": {}
            },
            {
                "species": [
                    {
                        "element": "B",
                        "occu": 1
                    }
                ],
                "abc": [
                    0.08772848,
                    0.16761491,
                    0.12697102
                ],
                "xyz": [
                    0.8277848952891652,
                    1.231255496314645,
                    0.9123735501392265
                ],
                "label": "B",
                "properties": {}
            },
            {
                "species": [
                    {
                        "element": "B",
                        "occu": 1
                    }
                ],
                "abc": [
                    0.91227152,
                    0.83238509,
                    0.87302898
                ],
                "xyz": [
                    7.324706514710835,
                    6.505812013685356,
                    6.272831199860772
                ],
                "label": "B",
                "properties": {}
            },
            {
                "species": [
                    {
                        "element": "O",
                        "occu": 1
                    }
                ],
                "abc": [
                    0.60804951,
                    0.75632675,
                    0.49551811
                ],
                "xyz": [
                    4.941303909199913,
                    5.430975578270782,
                    3.5606620743419533
                ],
                "label": "O",
                "properties": {}
            },
            {
                "species": [
                    {
                        "element": "O",
                        "occu": 1
                    }
                ],
                "abc": [
                    0.39195049,
                    0.24367325,
                    0.50448189
                ],
                "xyz": [
                    3.2111875008000865,
                    2.3060919317292186,
                    3.6245426756580468
                ],
                "label": "O",
                "properties": {}
            },
            {
                "species": [
                    {
                        "element": "O",
                        "occu": 1
                    }
                ],
                "abc": [
                    0.46212928,
                    0.52904979,
                    0.79548285
                ],
                "xyz": [
                    4.226164388933564,
                    4.523068371749982,
                    5.715514601446353
                ],
                "label": "O",
                "properties": {}
            },
            {
                "species": [
                    {
                        "element": "O",
                        "occu": 1
                    }
                ],
                "abc": [
                    0.53787072,
                    0.47095021,
                    0.20451715
                ],
                "xyz": [
                    3.9263270210664354,
                    3.2139991382500175,
                    1.4696901485536467
                ],
                "label": "O",
                "properties": {}
            },
            {
                "species": [
                    {
                        "element": "O",
                        "occu": 1
                    }
                ],
                "abc": [
                    0.30842889,
                    0.07161828,
                    0.11854347
                ],
                "xyz": [
                    2.0915477675845375,
                    0.6298946336113918,
                    0.8516385474576336
                ],
                "label": "O",
                "properties": {}
            },
            {
                "species": [
                    {
                        "element": "O",
                        "occu": 1
                    }
                ],
                "abc": [
                    0.69157111,
                    0.92838172,
                    0.88145653
                ],
                "xyz": [
                    6.060943642415463,
                    7.107172876388608,
                    6.333566202542366
                ],
                "label": "O",
                "properties": {}
            },
            {
                "species": [
                    {
                        "element": "O",
                        "occu": 1
                    }
                ],
                "abc": [
                    0.79422385,
                    0.40222659,
                    0.6136811
                ],
                "xyz": [
                    5.937056865345799,
                    3.4532980269127256,
                    4.409116402998014
                ],
                "label": "O",
                "properties": {}
            },
            {
                "species": [
                    {
                        "element": "O",
                        "occu": 1
                    }
                ],
                "abc": [
                    0.20577615,
                    0.59777341,
                    0.3863189
                ],
                "xyz": [
                    2.2154345446542,
                    4.283769483087275,
                    2.776088347001985
                ],
                "label": "O",
                "properties": {}
            },
            {
                "species": [
                    {
                        "element": "O",
                        "occu": 1
                    }
                ],
                "abc": [
                    0.98725223,
                    0.25613829,
                    0.97139837
                ],
                "xyz": [
                    7.434512391720018,
                    3.13583572193902,
                    6.97886183479753
                ],
                "label": "O",
                "properties": {}
            },
            {
                "species": [
                    {
                        "element": "O",
                        "occu": 1
                    }
                ],
                "abc": [
                    0.01274777,
                    0.74386171,
                    0.02860163
                ],
                "xyz": [
                    0.7179790182799818,
                    4.60123178806098,
                    0.2063429152024699
                ],
                "label": "O",
                "properties": {}
            },
            {
                "species": [
                    {
                        "element": "O",
                        "occu": 1
                    }
                ],
                "abc": [
                    0.9772775,
                    0.17434608,
                    0.30399264
                ],
                "xyz": [
                    6.497584529054981,
                    1.5583439664386092,
                    2.1838644703764527
                ],
                "label": "O",
                "properties": {}
            },
            {
                "species": [
                    {
                        "element": "O",
                        "occu": 1
                    }
                ],
                "abc": [
                    0.0227225,
                    0.82565392,
                    0.69600736
                ],
                "xyz": [
                    1.6549068809450191,
                    6.178723543561391,
                    5.001340279623547
                ],
                "label": "O",
                "properties": {}
            }
        ]
    },
    "spacegroup": {
        "source": "spglib",
        "symbol": "P-1",
        "number": 2,
        "point_group": "-1",
        "crystal_system": "triclinic",
        "hall": "-P 1"
    },
    "dielectric": {
        "epsilon_ionic": [
            [
                5.38272845,
                -0.01174175,
                0.23765164
            ],
            [
                -0.01174175,
                6.74792939,
                1.41283173
            ],
            [
                0.23765164,
                1.41283173,
                6.2022076
            ]
        ],
        "epsilon_ionic_avg": 6.110955146666668,
        "epsilon_ionic_eig": [
            5.460279647606501,
            4.9505727430392374,
            7.9220130493542635
        ],
        "epsilon_electronic": [
            [
                3.74563496,
                -0.21726632,
                -0.10359658
            ],
            [
                -0.21726733,
                3.60345573,
                -0.00966769
            ],
            [
                -0.10359644,
                -0.00966703,
                3.80570472
            ]
        ],
        "epsilon_electronic_avg": 3.7182651366666666,
        "epsilon_electronic_eig": [
            3.4328537075153296,
            3.9488559977238844,
            3.7730857047607866
        ]
    },
    "phonon": {
        "lowest_freq": -0.06831805919531589,
        "frequency": [
            -0.06831805919531589,
            -0.04894005690486718,
            -0.028690405094128436,
            2.0863138100330083,
            2.3944953019661517,
            2.422246256774267,
            2.4720818553473394,
            2.66635856434766,
            2.8541771309763715,
            2.9754771578829113,
            3.1026122599986174,
            3.1129515121908122,
            3.2897174745817863,
            3.3423103125548064,
            3.8468370075593534,
            3.9815044906497152,
            4.312187071852588,
            4.407841605410211,
            4.971992299517402,
            5.304145485928448,
            5.644786756031936,
            5.659655341013011,
            6.32771500918078,
            6.431260925902374,
            6.830979081718234,
            6.849181300591611,
            7.110466840464698,
            7.208466204230044,
            7.433080796761727,
            7.465792357202468,
            7.77350933363602,
            7.984718400962478,
            8.400152582933357,
            8.534621195618247,
            9.124238250791342,
            9.198138491527294,
            9.567312908367521,
            9.899096719947272,
            10.02852232128813,
            10.418504502608958,
            10.788235711328092,
            11.264283193349305,
            16.265071095569052,
            16.362450485438984,
            17.02709977612466,
            17.20744356451856,
            17.222555769742286,
            17.264114394447784,
            17.51030690788319,
            17.653878370575427,
            20.139313131538003,
            20.509127384206643,
            20.555592769357588,
            21.242418753923086,
            26.284293526510776,
            26.42429339361507,
            27.014397288428974,
            27.29677643473696,
            34.26437124865414,
            35.27525370645299,
            35.64103892183302,
            35.64126630809198,
            36.289711993045884,
            37.30865538006646,
            38.3890189311645,
            38.663095957739465
        ]
    },
    "born_effective_charge": {
        "avg_abs_trace": 2.0353725757575756,
        "tensors": [
            [
                [
                    2.28794,
                    -0.02608,
                    0.06023
                ],
                [
                    -0.03845,
                    2.6272,
                    -0.1417
                ],
                [
                    0.06616,
                    -0.22049,
                    2.35236
                ]
            ],
            [
                [
                    2.28794,
                    -0.02606,
                    0.06022
                ],
                [
                    -0.03841,
                    2.6272,
                    -0.14172
                ],
                [
                    0.0662,
                    -0.22046,
                    2.35231
                ]
            ],
            [
                [
                    2.49532,
                    -0.03394,
                    -0.15595
                ],
                [
                    -0.00094,
                    2.38774,
                    0.1822
                ],
                [
                    -0.14801,
                    0.19211,
                    2.21496
                ]
            ],
            [
                [
                    2.49531,
                    -0.03394,
                    -0.15595
                ],
                [
                    -0.00092,
                    2.38776,
                    0.18222
                ],
                [
                    -0.148,
                    0.19207,
                    2.21495
                ]
            ],
            [
                [
                    2.50884,
                    0.01169,
                    -0.11067
                ],
                [
                    -0.00081,
                    2.12181,
                    0.04752
                ],
                [
                    -0.06619,
                    0.06321,
                    2.54133
                ]
            ],
            [
                [
                    2.50884,
                    0.01165,
                    -0.11066
                ],
                [
                    -0.00079,
                    2.12181,
                    0.04753
                ],
                [
                    -0.06619,
                    0.06312,
                    2.54132
                ]
            ],
            [
                [
                    1.59438,
                    -0.84375,
                    -0.76853
                ],
                [
                    -0.7842,
                    1.95452,
                    -0.64737
                ],
                [
                    -0.93651,
                    -0.4397,
                    2.32864
                ]
            ],
            [
                [
                    1.59439,
                    -0.84372,
                    -0.76852
                ],
                [
                    -0.78422,
                    1.9545,
                    -0.64738
                ],
                [
                    -0.93661,
                    -0.43969,
                    2.32884
                ]
            ],
            [
                [
                    2.2709,
                    -0.99713,
                    0.33395
                ],
                [
                    -1.09594,
                    0.96346,
                    0.20571
                ],
                [
                    0.37686,
                    0.23002,
                    2.93413
                ]
            ],
            [
                [
                    2.27091,
                    -0.99711,
                    0.33394
                ],
                [
                    -1.09596,
                    0.96348,
                    0.20577
                ],
                [
                    0.37665,
                    0.23013,
                    2.93419
                ]
            ],
            [
                [
                    -1.54342,
                    0.16923,
                    -0.06602
                ],
                [
                    0.18013,
                    -2.26491,
                    0.44214
                ],
                [
                    -0.02837,
                    0.3855,
                    -1.81296
                ]
            ],
            [
                [
                    -1.54342,
                    0.16921,
                    -0.06601
                ],
                [
                    0.18018,
                    -2.26493,
                    0.44206
                ],
                [
                    -0.02834,
                    0.38545,
                    -1.81295
                ]
            ],
            [
                [
                    -1.86438,
                    0.10617,
                    0.44166
                ],
                [
                    0.15147,
                    -1.35994,
                    -0.04029
                ],
                [
                    0.46017,
                    -0.07641,
                    -2.33339
                ]
            ],
            [
                [
                    -1.86436,
                    0.10615,
                    0.4417
                ],
                [
                    0.15156,
                    -1.35993,
                    -0.04039
                ],
                [
                    0.46006,
                    -0.07648,
                    -2.33353
                ]
            ],
            [
                [
                    -2.38266,
                    0.48887,
                    0.18196
                ],
                [
                    0.47553,
                    -1.67991,
                    -0.13055
                ],
                [
                    0.23803,
                    -0.09913,
                    -1.59624
                ]
            ],
            [
                [
                    -2.38271,
                    0.48884,
                    0.18191
                ],
                [
                    0.47559,
                    -1.67989,
                    -0.13054
                ],
                [
                    0.23801,
                    -0.09913,
                    -1.59621
                ]
            ],
            [
                [
                    -1.93059,
                    0.56125,
                    0.15264
                ],
                [
                    0.5054,
                    -2.05034,
                    -0.08371
                ],
                [
                    0.17368,
                    -0.07853,
                    -1.62487
                ]
            ],
            [
                [
                    -1.93054,
                    0.56117,
                    0.15262
                ],
                [
                    0.50545,
                    -2.05033,
                    -0.08373
                ],
                [
                    0.17371,
                    -0.07854,
                    -1.62488
                ]
            ],
            [
                [
                    -1.84971,
                    0.11273,
                    -0.49408
                ],
                [
                    0.18817,
                    -1.1579,
                    0.36455
                ],
                [
                    -0.56514,
                    0.30707,
                    -2.35376
                ]
            ],
            [
                [
                    -1.84974,
                    0.11278,
                    -0.49414
                ],
                [
                    0.18811,
                    -1.15796,
                    0.36445
                ],
                [
                    -0.56509,
                    0.30713,
                    -2.35367
                ]
            ],
            [
                [
                    -1.58668,
                    0.45099,
                    0.42487
                ],
                [
                    0.41948,
                    -1.54173,
                    -0.19836
                ],
                [
                    0.42941,
                    -0.26363,
                    -2.65029
                ]
            ],
            [
                [
                    -1.58656,
                    0.45099,
                    0.42484
                ],
                [
                    0.41955,
                    -1.54172,
                    -0.1984
                ],
                [
                    0.42951,
                    -0.26362,
                    -2.6503
                ]
            ]
        ]
    },
    "band_gap": 1.6239000000000001,
    "is_direct": false,
    "formula": "Cd3(BO3)2"
}