{
    "mp_id": "mp-14364",
    "nelements": 4,
    "nsites": 16,
    "elements": [
        "As",
        "Cs",
        "Li",
        "O"
    ],
    "structure": {
        "@module": "pymatgen.core.structure",
        "@class": "Structure",
        "charge": null,
        "lattice": {
            "matrix": [
                [
                    2.9811361,
                    -6.09470209,
                    0.0
                ],
                [
                    2.9811361,
                    6.09470209,
                    0.0
                ],
                [
                    0.0,
                    0.0,
                    8.15329547
                ]
            ],
            "a": 6.784730356659252,
            "b": 6.784730356659252,
            "c": 8.15329547,
            "alpha": 90.0,
            "beta": 90.0,
            "gamma": 127.87018912045144,
            "volume": 296.27667532167555
        },
        "sites": [
            {
                "species": [
                    {
                        "element": "Cs",
                        "occu": 1
                    }
                ],
                "abc": [
                    0.93526603,
                    0.06473397,
                    0.14742412
                ],
                "xyz": [
                    2.9811361,
                    -5.305633565494006,
                    1.2019924097647363
                ],
                "label": "Cs",
                "properties": {}
            },
            {
                "species": [
                    {
                        "element": "Cs",
                        "occu": 1
                    }
                ],
                "abc": [
                    0.06473397,
                    0.93526603,
                    0.64742412
                ],
                "xyz": [
                    2.9811361,
                    5.305633565494006,
                    5.278640144764736
                ],
                "label": "Cs",
                "properties": {}
            },
            {
                "species": [
                    {
                        "element": "Cs",
                        "occu": 1
                    }
                ],
                "abc": [
                    0.39570796,
                    0.60429204,
                    0.50279526
                ],
                "xyz": [
                    2.9811361,
                    1.271257828316727,
                    4.099438315695472
                ],
                "label": "Cs",
                "properties": {}
            },
            {
                "species": [
                    {
                        "element": "Cs",
                        "occu": 1
                    }
                ],
                "abc": [
                    0.60429204,
                    0.39570796,
                    0.00279526
                ],
                "xyz": [
                    2.9811361,
                    -1.271257828316727,
                    0.0227905806954722
                ],
                "label": "Cs",
                "properties": {}
            },
            {
                "species": [
                    {
                        "element": "Li",
                        "occu": 1
                    }
                ],
                "abc": [
                    0.20594744,
                    0.79405256,
                    0.23144332
                ],
                "xyz": [
                    2.9811361,
                    3.5843255040037008,
                    1.8870257725177604
                ],
                "label": "Li",
                "properties": {}
            },
            {
                "species": [
                    {
                        "element": "Li",
                        "occu": 1
                    }
                ],
                "abc": [
                    0.79405256,
                    0.20594744,
                    0.73144332
                ],
                "xyz": [
                    2.9811361,
                    -3.5843255040037008,
                    5.96367350751776
                ],
                "label": "Li",
                "properties": {}
            },
            {
                "species": [
                    {
                        "element": "As",
                        "occu": 1
                    }
                ],
                "abc": [
                    0.30462703,
                    0.69537297,
                    0.9455315
                ],
                "xyz": [
                    2.9811361,
                    2.3814800971770147,
                    7.709197695692304
                ],
                "label": "As",
                "properties": {}
            },
            {
                "species": [
                    {
                        "element": "As",
                        "occu": 1
                    }
                ],
                "abc": [
                    0.69537297,
                    0.30462703,
                    0.4455315
                ],
                "xyz": [
                    2.9811361,
                    -2.3814800971770147,
                    3.6325499606923053
                ],
                "label": "As",
                "properties": {}
            },
            {
                "species": [
                    {
                        "element": "O",
                        "occu": 1
                    }
                ],
                "abc": [
                    0.57959373,
                    0.89056358,
                    0.84010853
                ],
                "xyz": [
                    4.382739029519891,
                    1.8952685947219865,
                    6.849653071957358
                ],
                "label": "O",
                "properties": {}
            },
            {
                "species": [
                    {
                        "element": "O",
                        "occu": 1
                    }
                ],
                "abc": [
                    0.42040627,
                    0.10943642,
                    0.34010853
                ],
                "xyz": [
                    1.579533170480109,
                    -1.8952685947219865,
                    2.7730053369573593
                ],
                "label": "O",
                "properties": {}
            },
            {
                "species": [
                    {
                        "element": "O",
                        "occu": 1
                    }
                ],
                "abc": [
                    0.36311704,
                    0.63688296,
                    0.13824953
                ],
                "xyz": [
                    2.9811361,
                    1.6685217247947728,
                    1.1271892666786292
                ],
                "label": "O",
                "properties": {}
            },
            {
                "species": [
                    {
                        "element": "O",
                        "occu": 1
                    }
                ],
                "abc": [
                    0.63688296,
                    0.36311704,
                    0.63824953
                ],
                "xyz": [
                    2.9811361,
                    -1.6685217247947728,
                    5.203837001678629
                ],
                "label": "O",
                "properties": {}
            },
            {
                "species": [
                    {
                        "element": "O",
                        "occu": 1
                    }
                ],
                "abc": [
                    0.10943642,
                    0.42040627,
                    0.84010853
                ],
                "xyz": [
                    1.579533170480109,
                    1.8952685947219865,
                    6.849653071957358
                ],
                "label": "O",
                "properties": {}
            },
            {
                "species": [
                    {
                        "element": "O",
                        "occu": 1
                    }
                ],
                "abc": [
                    0.89056358,
                    0.57959373,
                    0.34010853
                ],
                "xyz": [
                    4.382739029519891,
                    -1.8952685947219865,
                    2.7730053369573593
                ],
                "label": "O",
                "properties": {}
            },
            {
                "species": [
                    {
                        "element": "O",
                        "occu": 1
                    }
                ],
                "abc": [
                    0.83448401,
                    0.16551599,
                    0.48583919
                ],
                "xyz": [
                    2.9811361,
                    -4.077160789637162,
                    3.961190466975469
                ],
                "label": "O",
                "properties": {}
            },
            {
                "species": [
                    {
                        "element": "O",
                        "occu": 1
                    }
                ],
                "abc": [
                    0.16551599,
                    0.83448401,
                    0.98583919
                ],
                "xyz": [
                    2.9811361,
                    4.077160789637162,
                    8.037838201975468
                ],
                "label": "O",
                "properties": {}
            }
        ]
    },
    "spacegroup": {
        "source": "spglib",
        "symbol": "Cmc2_1",
        "number": 36,
        "point_group": "mm2",
        "crystal_system": "orthorhombic",
        "hall": "C 2c -2"
    },
    "dielectric": {
        "epsilon_ionic": [
            [
                4.49211698,
                -0.0,
                1.3e-06
            ],
            [
                -0.0,
                5.71137577,
                -1.268e-05
            ],
            [
                1.3e-06,
                -1.268e-05,
                5.24176881
            ]
        ],
        "epsilon_ionic_avg": 5.148420520000001,
        "epsilon_ionic_eig": [
            4.492116979997745,
            5.241768809659881,
            5.711375770342377
        ],
        "epsilon_electronic": [
            [
                2.97786011,
                0.0,
                0.0
            ],
            [
                0.0,
                2.95028886,
                0.0
            ],
            [
                0.0,
                0.0,
                2.95893037
            ]
        ],
        "epsilon_electronic_avg": 2.96235978,
        "epsilon_electronic_eig": [
            2.97786011,
            2.95028886,
            2.95893037
        ]
    },
    "phonon": {
        "lowest_freq": -0.1207136915381435,
        "frequency": [
            -0.1207136915381435,
            -0.11323714272545318,
            -0.045095032443266465,
            1.4137597676159954,
            1.46003739825826,
            1.7146753869958502,
            1.7633872782218136,
            1.9744057702133453,
            2.127182013033166,
            2.2343777261210924,
            2.3215801663660653,
            2.335911542716752,
            2.3894183902526698,
            2.5603127718347283,
            2.705678186483858,
            2.711785280557001,
            3.030818251539396,
            3.3429934210144565,
            3.73757718654211,
            3.8075451663244886,
            4.260959189530764,
            4.452870382750401,
            4.781366401040096,
            5.524504104391436,
            8.264384013991553,
            8.558936906473996,
            9.204997780162467,
            9.205141458740236,
            9.92949839249855,
            9.969535460423746,
            10.02566719071528,
            10.648676416551186,
            10.949077854488698,
            11.338724929425405,
            11.600909898027762,
            12.148100085024948,
            13.2054095660777,
            13.924803820300598,
            14.065664018197657,
            14.516949090833469,
            22.587047208439024,
            22.736093026656825,
            23.084930471544478,
            23.425838165802073,
            23.65274802416804,
            23.723436061321962,
            24.087271011754158,
            24.931353190851834
        ]
    },
    "born_effective_charge": {
        "avg_abs_trace": 1.690464375,
        "tensors": [
            [
                [
                    1.4632,
                    0.0,
                    -0.0
                ],
                [
                    0.0,
                    1.31853,
                    -0.07302
                ],
                [
                    0.0,
                    -0.02305,
                    1.35053
                ]
            ],
            [
                [
                    1.4632,
                    -0.0,
                    -0.0
                ],
                [
                    0.0,
                    1.31856,
                    0.07302
                ],
                [
                    0.0,
                    0.02305,
                    1.35053
                ]
            ],
            [
                [
                    1.35374,
                    -0.0,
                    0.0
                ],
                [
                    0.0,
                    1.22904,
                    0.03262
                ],
                [
                    0.0,
                    0.00739,
                    1.48597
                ]
            ],
            [
                [
                    1.35374,
                    0.0,
                    0.0
                ],
                [
                    0.0,
                    1.22905,
                    -0.03264
                ],
                [
                    0.0,
                    -0.00739,
                    1.48597
                ]
            ],
            [
                [
                    1.16892,
                    -0.0,
                    0.0
                ],
                [
                    0.0,
                    0.85874,
                    -0.08961
                ],
                [
                    0.0,
                    -0.19214,
                    1.16382
                ]
            ],
            [
                [
                    1.16892,
                    0.0,
                    0.0
                ],
                [
                    0.0,
                    0.85874,
                    0.08961
                ],
                [
                    0.0,
                    0.19214,
                    1.16382
                ]
            ],
            [
                [
                    2.95971,
                    -0.0,
                    0.0
                ],
                [
                    0.0,
                    2.99408,
                    0.0497
                ],
                [
                    0.0,
                    -0.01134,
                    2.93927
                ]
            ],
            [
                [
                    2.95971,
                    0.0,
                    0.0
                ],
                [
                    0.0,
                    2.99407,
                    -0.04969
                ],
                [
                    0.0,
                    0.01134,
                    2.93927
                ]
            ],
            [
                [
                    -2.05766,
                    -0.16744,
                    0.39915
                ],
                [
                    -0.17109,
                    -1.30993,
                    0.07658
                ],
                [
                    0.42945,
                    0.09061,
                    -1.69969
                ]
            ],
            [
                [
                    -2.05767,
                    -0.16744,
                    -0.39916
                ],
                [
                    -0.17109,
                    -1.30993,
                    -0.07657
                ],
                [
                    -0.42945,
                    -0.09061,
                    -1.69969
                ]
            ],
            [
                [
                    -1.40618,
                    -0.0,
                    -0.0
                ],
                [
                    0.0,
                    -1.54048,
                    -0.37581
                ],
                [
                    0.0,
                    -0.22969,
                    -2.10449
                ]
            ],
            [
                [
                    -1.40618,
                    0.0,
                    -0.0
                ],
                [
                    0.0,
                    -1.54048,
                    0.3758
                ],
                [
                    0.0,
                    0.22969,
                    -2.10449
                ]
            ],
            [
                [
                    -2.05767,
                    0.16744,
                    -0.39916
                ],
                [
                    0.17109,
                    -1.30993,
                    0.07658
                ],
                [
                    -0.42945,
                    0.09061,
                    -1.69969
                ]
            ],
            [
                [
                    -2.05766,
                    0.16744,
                    0.39915
                ],
                [
                    0.17109,
                    -1.30993,
                    -0.07657
                ],
                [
                    0.42945,
                    -0.09061,
                    -1.69969
                ]
            ],
            [
                [
                    -1.42405,
                    -0.0,
                    0.0
                ],
                [
                    0.0,
                    -2.24005,
                    -0.15328
                ],
                [
                    0.0,
                    -0.09684,
                    -1.43574
                ]
            ],
            [
                [
                    -1.42405,
                    0.0,
                    0.0
                ],
                [
                    0.0,
                    -2.24009,
                    0.15326
                ],
                [
                    0.0,
                    0.09684,
                    -1.43574
                ]
            ]
        ]
    },
    "band_gap": 3.9256,
    "is_direct": false,
    "formula": "Cs2LiAsO4"
}