{
    "mp_id": "mp-18852",
    "nelements": 3,
    "nsites": 14,
    "elements": [
        "Mo",
        "Na",
        "O"
    ],
    "structure": {
        "@module": "pymatgen.core.structure",
        "@class": "Structure",
        "charge": null,
        "lattice": {
            "matrix": [
                [
                    0.0,
                    4.515121,
                    4.515121
                ],
                [
                    4.515121,
                    0.0,
                    4.515121
                ],
                [
                    4.515121,
                    4.515121,
                    0.0
                ]
            ],
            "a": 6.385345353955571,
            "b": 6.385345353955571,
            "c": 6.385345353955571,
            "alpha": 60.00000000000001,
            "beta": 60.00000000000001,
            "gamma": 60.00000000000001,
            "volume": 184.0933818199782
        },
        "sites": [
            {
                "species": [
                    {
                        "element": "Na",
                        "occu": 1
                    }
                ],
                "abc": [
                    0.125,
                    0.125,
                    0.125
                ],
                "xyz": [
                    1.12878025,
                    1.12878025,
                    1.12878025
                ],
                "label": "Na",
                "properties": {}
            },
            {
                "species": [
                    {
                        "element": "Na",
                        "occu": 1
                    }
                ],
                "abc": [
                    0.625,
                    0.125,
                    0.125
                ],
                "xyz": [
                    1.12878025,
                    3.38634075,
                    3.38634075
                ],
                "label": "Na",
                "properties": {}
            },
            {
                "species": [
                    {
                        "element": "Na",
                        "occu": 1
                    }
                ],
                "abc": [
                    0.125,
                    0.125,
                    0.625
                ],
                "xyz": [
                    3.38634075,
                    3.38634075,
                    1.12878025
                ],
                "label": "Na",
                "properties": {}
            },
            {
                "species": [
                    {
                        "element": "Na",
                        "occu": 1
                    }
                ],
                "abc": [
                    0.125,
                    0.625,
                    0.125
                ],
                "xyz": [
                    3.38634075,
                    1.12878025,
                    3.38634075
                ],
                "label": "Na",
                "properties": {}
            },
            {
                "species": [
                    {
                        "element": "Mo",
                        "occu": 1
                    }
                ],
                "abc": [
                    0.5,
                    0.5,
                    0.5
                ],
                "xyz": [
                    4.515121,
                    4.515121,
                    4.515121
                ],
                "label": "Mo",
                "properties": {}
            },
            {
                "species": [
                    {
                        "element": "Mo",
                        "occu": 1
                    }
                ],
                "abc": [
                    0.75,
                    0.75,
                    0.75
                ],
                "xyz": [
                    6.772681499999999,
                    6.772681499999999,
                    6.772681499999999
                ],
                "label": "Mo",
                "properties": {}
            },
            {
                "species": [
                    {
                        "element": "O",
                        "occu": 1
                    }
                ],
                "abc": [
                    0.864641,
                    0.864641,
                    0.864641
                ],
                "xyz": [
                    7.807917473121999,
                    7.807917473121999,
                    7.807917473121999
                ],
                "label": "O",
                "properties": {}
            },
            {
                "species": [
                    {
                        "element": "O",
                        "occu": 1
                    }
                ],
                "abc": [
                    0.843923,
                    0.385359,
                    0.385359
                ],
                "xyz": [
                    3.4798850268779997,
                    5.550356973122,
                    5.550356973122
                ],
                "label": "O",
                "properties": {}
            },
            {
                "species": [
                    {
                        "element": "O",
                        "occu": 1
                    }
                ],
                "abc": [
                    0.385359,
                    0.385359,
                    0.843923
                ],
                "xyz": [
                    5.550356973122,
                    5.550356973122,
                    3.4798850268779997
                ],
                "label": "O",
                "properties": {}
            },
            {
                "species": [
                    {
                        "element": "O",
                        "occu": 1
                    }
                ],
                "abc": [
                    0.385359,
                    0.843923,
                    0.385359
                ],
                "xyz": [
                    5.550356973122,
                    3.4798850268779997,
                    5.550356973122
                ],
                "label": "O",
                "properties": {}
            },
            {
                "species": [
                    {
                        "element": "O",
                        "occu": 1
                    }
                ],
                "abc": [
                    0.864641,
                    0.864641,
                    0.406077
                ],
                "xyz": [
                    5.737445526878,
                    5.737445526878,
                    7.807917473121999
                ],
                "label": "O",
                "properties": {}
            },
            {
                "species": [
                    {
                        "element": "O",
                        "occu": 1
                    }
                ],
                "abc": [
                    0.864641,
                    0.406077,
                    0.864641
                ],
                "xyz": [
                    5.737445526878,
                    7.807917473121999,
                    5.737445526878
                ],
                "label": "O",
                "properties": {}
            },
            {
                "species": [
                    {
                        "element": "O",
                        "occu": 1
                    }
                ],
                "abc": [
                    0.385359,
                    0.385359,
                    0.385359
                ],
                "xyz": [
                    3.4798850268779997,
                    3.4798850268779997,
                    3.4798850268779997
                ],
                "label": "O",
                "properties": {}
            },
            {
                "species": [
                    {
                        "element": "O",
                        "occu": 1
                    }
                ],
                "abc": [
                    0.406077,
                    0.864641,
                    0.864641
                ],
                "xyz": [
                    7.807917473121999,
                    5.737445526878,
                    5.737445526878
                ],
                "label": "O",
                "properties": {}
            }
        ]
    },
    "spacegroup": {
        "source": "spglib",
        "symbol": "Fd-3m",
        "number": 227,
        "point_group": "m-3m",
        "crystal_system": "cubic",
        "hall": "F 4d 2 3 -1d"
    },
    "dielectric": {
        "epsilon_ionic": [
            [
                3.1440794,
                -0.0,
                -0.0
            ],
            [
                -0.0,
                3.14378408,
                -3e-08
            ],
            [
                -0.0,
                -3e-08,
                3.14277613
            ]
        ],
        "epsilon_ionic_avg": 3.143546536666667,
        "epsilon_ionic_eig": [
            3.142776129999107,
            3.143784080000893,
            3.1440794
        ],
        "epsilon_electronic": [
            [
                2.90743206,
                -0.0,
                0.0
            ],
            [
                -0.0,
                2.90743206,
                -0.0
            ],
            [
                0.0,
                -0.0,
                2.90743206
            ]
        ],
        "epsilon_electronic_avg": 2.90743206,
        "epsilon_electronic_eig": [
            2.90743206,
            2.90743206,
            2.90743206
        ]
    },
    "phonon": {
        "lowest_freq": -0.08249688858655373,
        "frequency": [
            -0.08249688858655373,
            -0.08249688858655373,
            -0.08249688858655373,
            3.4656977341831383,
            3.4656977341831383,
            3.4656977341831383,
            3.824316606107551,
            3.824316606107551,
            3.824316606107551,
            5.308194701497168,
            5.308194701497168,
            5.308194701497168,
            5.496967412877499,
            5.496967412877499,
            5.496967412877499,
            6.066556915848328,
            6.066556915848328,
            6.740052322179683,
            6.740052322179683,
            6.740052322179683,
            7.371151395527066,
            7.371151395527066,
            7.371151395527066,
            8.544883108021118,
            8.900942647340182,
            8.900942647340182,
            8.900942647340182,
            9.044350137135444,
            9.044350137135444,
            11.044365957075096,
            11.044365957075096,
            11.054673267423425,
            11.054673267423425,
            11.054673267423425,
            23.861667980356128,
            23.861667980356128,
            23.861667980356128,
            24.440613713781193,
            24.440613713781193,
            24.440613713781193,
            25.97659191273065,
            26.10605653327279
        ]
    },
    "born_effective_charge": {
        "avg_abs_trace": 1.6032319047619044,
        "tensors": [
            [
                [
                    1.23572,
                    -0.25629,
                    -0.25629
                ],
                [
                    -0.25627,
                    1.23563,
                    -0.25627
                ],
                [
                    -0.25628,
                    -0.25628,
                    1.23544
                ]
            ],
            [
                [
                    1.23572,
                    0.25629,
                    0.25629
                ],
                [
                    0.25627,
                    1.23563,
                    -0.25627
                ],
                [
                    0.25628,
                    -0.25628,
                    1.23544
                ]
            ],
            [
                [
                    1.23572,
                    -0.25629,
                    0.25629
                ],
                [
                    -0.25627,
                    1.23563,
                    0.25627
                ],
                [
                    0.25628,
                    0.25628,
                    1.23544
                ]
            ],
            [
                [
                    1.23572,
                    0.25629,
                    -0.25629
                ],
                [
                    0.25627,
                    1.23563,
                    0.25627
                ],
                [
                    -0.25628,
                    0.25628,
                    1.23544
                ]
            ],
            [
                [
                    3.14023,
                    -0.0,
                    0.0
                ],
                [
                    -0.0,
                    3.14038,
                    0.0
                ],
                [
                    0.0,
                    -0.0,
                    3.13974
                ]
            ],
            [
                [
                    3.14023,
                    -0.0,
                    -0.0
                ],
                [
                    -0.0,
                    3.14038,
                    0.0
                ],
                [
                    0.0,
                    -0.0,
                    3.13974
                ]
            ],
            [
                [
                    -1.40292,
                    -0.56381,
                    -0.56381
                ],
                [
                    -0.56381,
                    -1.40304,
                    -0.56381
                ],
                [
                    -0.56396,
                    -0.56396,
                    -1.40281
                ]
            ],
            [
                [
                    -1.40291,
                    0.56383,
                    0.56383
                ],
                [
                    0.56381,
                    -1.40304,
                    -0.56381
                ],
                [
                    0.56396,
                    -0.56396,
                    -1.40281
                ]
            ],
            [
                [
                    -1.40292,
                    -0.56381,
                    0.56381
                ],
                [
                    -0.56381,
                    -1.40304,
                    0.56381
                ],
                [
                    0.56415,
                    0.56415,
                    -1.4025
                ]
            ],
            [
                [
                    -1.40292,
                    0.56381,
                    -0.56381
                ],
                [
                    0.56398,
                    -1.40279,
                    0.56398
                ],
                [
                    -0.56396,
                    0.56396,
                    -1.40281
                ]
            ],
            [
                [
                    -1.40291,
                    -0.56383,
                    0.56383
                ],
                [
                    -0.56398,
                    -1.40279,
                    0.56398
                ],
                [
                    0.56396,
                    0.56396,
                    -1.40281
                ]
            ],
            [
                [
                    -1.40291,
                    0.56383,
                    -0.56383
                ],
                [
                    0.56381,
                    -1.40304,
                    0.56381
                ],
                [
                    -0.56415,
                    0.56415,
                    -1.4025
                ]
            ],
            [
                [
                    -1.40291,
                    -0.56383,
                    -0.56383
                ],
                [
                    -0.56398,
                    -1.40279,
                    -0.56398
                ],
                [
                    -0.56415,
                    -0.56415,
                    -1.4025
                ]
            ],
            [
                [
                    -1.40292,
                    0.56381,
                    0.56381
                ],
                [
                    0.56398,
                    -1.40279,
                    -0.56398
                ],
                [
                    0.56415,
                    -0.56415,
                    -1.4025
                ]
            ]
        ]
    },
    "band_gap": 4.3182,
    "is_direct": false,
    "formula": "Na2MoO4"
}