{
    "mp_id": "mp-17382",
    "nelements": 4,
    "nsites": 30,
    "elements": [
        "O",
        "Rb",
        "Si",
        "Sn"
    ],
    "structure": {
        "@module": "pymatgen.core.structure",
        "@class": "Structure",
        "charge": null,
        "lattice": {
            "matrix": [
                [
                    7.00093803,
                    5e-08,
                    0.0
                ],
                [
                    -3.50046856,
                    6.06299005,
                    0.0
                ],
                [
                    0.0,
                    0.0,
                    10.11587342
                ]
            ],
            "a": 7.00093803,
            "b": 7.000937686192292,
            "c": 10.11587342,
            "alpha": 90.0,
            "beta": 90.0,
            "gamma": 119.99999691551619,
            "volume": 429.38461268674354
        },
        "sites": [
            {
                "species": [
                    {
                        "element": "Rb",
                        "occu": 1
                    }
                ],
                "abc": [
                    0.333333,
                    0.666667,
                    0.0580315
                ],
                "xyz": [
                    -3.1971355296533943e-06,
                    4.041995404330001,
                    0.58703930837273
                ],
                "label": "Rb",
                "properties": {}
            },
            {
                "species": [
                    {
                        "element": "Rb",
                        "occu": 1
                    }
                ],
                "abc": [
                    0.666667,
                    0.333333,
                    0.5580315
                ],
                "xyz": [
                    3.50047266713553,
                    2.02099469567,
                    5.64497601837273
                ],
                "label": "Rb",
                "properties": {}
            },
            {
                "species": [
                    {
                        "element": "Rb",
                        "occu": 1
                    }
                ],
                "abc": [
                    0.333333,
                    0.666667,
                    0.4419685
                ],
                "xyz": [
                    -3.1971355296533943e-06,
                    4.041995404330001,
                    4.47089740162727
                ],
                "label": "Rb",
                "properties": {}
            },
            {
                "species": [
                    {
                        "element": "Rb",
                        "occu": 1
                    }
                ],
                "abc": [
                    0.666667,
                    0.333333,
                    0.9419685
                ],
                "xyz": [
                    3.50047266713553,
                    2.02099469567,
                    9.528834111627269
                ],
                "label": "Rb",
                "properties": {}
            },
            {
                "species": [
                    {
                        "element": "Si",
                        "occu": 1
                    }
                ],
                "abc": [
                    0.61721041,
                    0.75219142,
                    0.75
                ],
                "xyz": [
                    1.6880294150691375,
                    4.560529126015892,
                    7.586905065
                ],
                "label": "Si",
                "properties": {}
            },
            {
                "species": [
                    {
                        "element": "Si",
                        "occu": 1
                    }
                ],
                "abc": [
                    0.86501899,
                    0.61721041,
                    0.25
                ],
                "xyz": [
                    3.895418708653481,
                    3.7421406178373697,
                    2.528968355
                ],
                "label": "Si",
                "properties": {}
            },
            {
                "species": [
                    {
                        "element": "Si",
                        "occu": 1
                    }
                ],
                "abc": [
                    0.75219142,
                    0.13498101,
                    0.25
                ],
                "xyz": [
                    4.793548736415658,
                    0.8183885581785215,
                    2.528968355
                ],
                "label": "Si",
                "properties": {}
            },
            {
                "species": [
                    {
                        "element": "Si",
                        "occu": 1
                    }
                ],
                "abc": [
                    0.24780858,
                    0.86501899,
                    0.75
                ],
                "xyz": [
                    -1.293079266415657,
                    5.244601541821479,
                    7.586905065
                ],
                "label": "Si",
                "properties": {}
            },
            {
                "species": [
                    {
                        "element": "Si",
                        "occu": 1
                    }
                ],
                "abc": [
                    0.13498101,
                    0.38278959,
                    0.75
                ],
                "xyz": [
                    -0.39494923865347986,
                    2.32084948216263,
                    7.586905065
                ],
                "label": "Si",
                "properties": {}
            },
            {
                "species": [
                    {
                        "element": "Si",
                        "occu": 1
                    }
                ],
                "abc": [
                    0.38278959,
                    0.24780858,
                    0.25
                ],
                "xyz": [
                    1.8124400549308632,
                    1.5024609739841086,
                    2.528968355
                ],
                "label": "Si",
                "properties": {}
            },
            {
                "species": [
                    {
                        "element": "Sn",
                        "occu": 1
                    }
                ],
                "abc": [
                    0.0,
                    0.0,
                    0.0
                ],
                "xyz": [
                    0.0,
                    0.0,
                    0.0
                ],
                "label": "Sn",
                "properties": {}
            },
            {
                "species": [
                    {
                        "element": "Sn",
                        "occu": 1
                    }
                ],
                "abc": [
                    0.0,
                    0.0,
                    0.5
                ],
                "xyz": [
                    0.0,
                    0.0,
                    5.05793671
                ],
                "label": "Sn",
                "properties": {}
            },
            {
                "species": [
                    {
                        "element": "O",
                        "occu": 1
                    }
                ],
                "abc": [
                    0.25544524,
                    0.22737052,
                    0.38660906
                ],
                "xyz": [
                    0.9924529385676264,
                    1.3785452131955878,
                    3.9108883139851853
                ],
                "label": "O",
                "properties": {}
            },
            {
                "species": [
                    {
                        "element": "O",
                        "occu": 1
                    }
                ],
                "abc": [
                    0.02807472,
                    0.25544524,
                    0.88660906
                ],
                "xyz": [
                    -0.6976286564920529,
                    1.548761949843598,
                    8.968825023985184
                ],
                "label": "O",
                "properties": {}
            },
            {
                "species": [
                    {
                        "element": "O",
                        "occu": 1
                    }
                ],
                "abc": [
                    0.22737052,
                    0.97192528,
                    0.88660906
                ],
                "xyz": [
                    -1.810386964940321,
                    5.89277331335199,
                    8.968825023985184
                ],
                "label": "O",
                "properties": {}
            },
            {
                "species": [
                    {
                        "element": "O",
                        "occu": 1
                    }
                ],
                "abc": [
                    0.77262948,
                    0.02807472,
                    0.38660906
                ],
                "xyz": [
                    5.310856434940321,
                    0.17021678664801,
                    3.9108883139851853
                ],
                "label": "O",
                "properties": {}
            },
            {
                "species": [
                    {
                        "element": "O",
                        "occu": 1
                    }
                ],
                "abc": [
                    0.97192528,
                    0.74455476,
                    0.38660906
                ],
                "xyz": [
                    4.198098126492054,
                    4.514228150156401,
                    3.9108883139851853
                ],
                "label": "O",
                "properties": {}
            },
            {
                "species": [
                    {
                        "element": "O",
                        "occu": 1
                    }
                ],
                "abc": [
                    0.74455476,
                    0.77262948,
                    0.88660906
                ],
                "xyz": [
                    2.508016531432374,
                    4.684444886804412,
                    8.968825023985184
                ],
                "label": "O",
                "properties": {}
            },
            {
                "species": [
                    {
                        "element": "O",
                        "occu": 1
                    }
                ],
                "abc": [
                    0.74455476,
                    0.77262948,
                    0.61339094
                ],
                "xyz": [
                    2.508016531432374,
                    4.684444886804412,
                    6.204985106014815
                ],
                "label": "O",
                "properties": {}
            },
            {
                "species": [
                    {
                        "element": "O",
                        "occu": 1
                    }
                ],
                "abc": [
                    0.97192528,
                    0.74455476,
                    0.11339094
                ],
                "xyz": [
                    4.198098126492054,
                    4.514228150156401,
                    1.1470483960148148
                ],
                "label": "O",
                "properties": {}
            },
            {
                "species": [
                    {
                        "element": "O",
                        "occu": 1
                    }
                ],
                "abc": [
                    0.77262948,
                    0.02807472,
                    0.11339094
                ],
                "xyz": [
                    5.310856434940321,
                    0.17021678664801,
                    1.1470483960148148
                ],
                "label": "O",
                "properties": {}
            },
            {
                "species": [
                    {
                        "element": "O",
                        "occu": 1
                    }
                ],
                "abc": [
                    0.22737052,
                    0.97192528,
                    0.61339094
                ],
                "xyz": [
                    -1.810386964940321,
                    5.89277331335199,
                    6.204985106014815
                ],
                "label": "O",
                "properties": {}
            },
            {
                "species": [
                    {
                        "element": "O",
                        "occu": 1
                    }
                ],
                "abc": [
                    0.02807472,
                    0.25544524,
                    0.61339094
                ],
                "xyz": [
                    -0.6976286564920529,
                    1.548761949843598,
                    6.204985106014815
                ],
                "label": "O",
                "properties": {}
            },
            {
                "species": [
                    {
                        "element": "O",
                        "occu": 1
                    }
                ],
                "abc": [
                    0.25544524,
                    0.22737052,
                    0.11339094
                ],
                "xyz": [
                    0.9924529385676264,
                    1.3785452131955878,
                    1.1470483960148148
                ],
                "label": "O",
                "properties": {}
            },
            {
                "species": [
                    {
                        "element": "O",
                        "occu": 1
                    }
                ],
                "abc": [
                    0.49339011,
                    0.08697424,
                    0.25
                ],
                "xyz": [
                    3.149742992074989,
                    0.5273239763958175,
                    2.528968355
                ],
                "label": "O",
                "properties": {}
            },
            {
                "species": [
                    {
                        "element": "O",
                        "occu": 1
                    }
                ],
                "abc": [
                    0.40641587,
                    0.49339011,
                    0.75
                ],
                "xyz": [
                    1.1181957524085948,
                    2.991419348019199,
                    7.586905065
                ],
                "label": "O",
                "properties": {}
            },
            {
                "species": [
                    {
                        "element": "O",
                        "occu": 1
                    }
                ],
                "abc": [
                    0.08697424,
                    0.59358413,
                    0.75
                ],
                "xyz": [
                    -1.4689213203336056,
                    3.5988946783766185,
                    7.586905065
                ],
                "label": "O",
                "properties": {}
            },
            {
                "species": [
                    {
                        "element": "O",
                        "occu": 1
                    }
                ],
                "abc": [
                    0.91302576,
                    0.40641587,
                    0.25
                ],
                "xyz": [
                    4.969390790333606,
                    2.4640954216233815,
                    2.528968355
                ],
                "label": "O",
                "properties": {}
            },
            {
                "species": [
                    {
                        "element": "O",
                        "occu": 1
                    }
                ],
                "abc": [
                    0.59358413,
                    0.50660989,
                    0.25
                ],
                "xyz": [
                    2.3822737175914055,
                    3.071570751980801,
                    2.528968355
                ],
                "label": "O",
                "properties": {}
            },
            {
                "species": [
                    {
                        "element": "O",
                        "occu": 1
                    }
                ],
                "abc": [
                    0.50660989,
                    0.91302576,
                    0.75
                ],
                "xyz": [
                    0.35072647792501144,
                    5.535666123604182,
                    7.586905065
                ],
                "label": "O",
                "properties": {}
            }
        ]
    },
    "spacegroup": {
        "source": "spglib",
        "symbol": "P6_3/m",
        "number": 176,
        "point_group": "6/m",
        "crystal_system": "hexagonal",
        "hall": "-P 6c"
    },
    "dielectric": {
        "epsilon_ionic": [
            [
                4.32365234,
                -8.746e-05,
                0.0
            ],
            [
                -8.746e-05,
                4.32365412,
                -0.0
            ],
            [
                0.0,
                -0.0,
                4.39922825
            ]
        ],
        "epsilon_ionic_avg": 4.348844903333333,
        "epsilon_ionic_eig": [
            4.323565765471761,
            4.323740694528238,
            4.39922825
        ],
        "epsilon_electronic": [
            [
                2.7995264,
                2.4e-07,
                0.0
            ],
            [
                -2.4e-07,
                2.79952626,
                0.0
            ],
            [
                0.0,
                -0.0,
                2.818811
            ]
        ],
        "epsilon_electronic_avg": 2.805954553333333,
        "epsilon_electronic_eig": [
            2.79952633,
            2.79952633,
            2.818811
        ]
    },
    "phonon": {
        "lowest_freq": -0.06330242390763151,
        "frequency": [
            -0.06330242390763151,
            -0.028473998694756135,
            -0.02847399792226147,
            2.0045165890751266,
            2.028252563777639,
            2.0282526180016833,
            2.3161877382578666,
            2.316187791017003,
            2.359155915238072,
            2.4194672648791182,
            2.4793925493965174,
            2.4793926134686965,
            2.561275681700811,
            2.7696047876026566,
            2.7696048626097873,
            3.18402854293845,
            3.1840285698038007,
            3.8243420473507097,
            3.8243421080618383,
            4.049814046471188,
            4.542843606743074,
            4.542843719720828,
            5.269531949033725,
            5.269531972223653,
            5.286519065236845,
            5.295014549881117,
            5.318430798223771,
            6.035073169494017,
            6.035073169494017,
            6.248728550996575,
            6.248728570552563,
            6.278506160053736,
            6.278506276833167,
            6.853415595451206,
            7.036587471076985,
            7.456093682716171,
            8.051103144259734,
            8.05110323532805,
            8.667305755010913,
            8.667305825505752,
            9.786177074136662,
            9.800000555119885,
            10.326849431400618,
            10.478861634602042,
            10.478861762879404,
            10.680284862443653,
            10.708917536906796,
            10.70891765101736,
            11.081854207028645,
            11.081854229082728,
            11.259784026484589,
            11.25978403733738,
            12.073330310876251,
            12.073330381726667,
            12.711891927161831,
            12.711891956000981,
            13.734802919323501,
            13.836241963488211,
            14.785440137434707,
            14.785440211818734,
            15.540998831589636,
            15.540998957398863,
            15.881197542760296,
            15.991963771552353,
            16.259927984894745,
            16.70805836255305,
            18.160964028185067,
            18.28551365431216,
            21.131817670158934,
            21.1318178436415,
            21.193897834183183,
            21.19389800715759,
            27.216409087756936,
            27.21640922245516,
            27.68848400642198,
            27.759138023658554,
            28.087021704393436,
            28.087021834916424,
            29.142570168038773,
            29.142570209970586,
            29.62355130247616,
            29.623551714986004,
            29.680122677483805,
            29.68012308920739,
            29.92622249985161,
            30.014020180118024,
            30.236333630968595,
            30.236333671383566,
            30.956843801787507,
            33.82320711170269
        ]
    },
    "born_effective_charge": {
        "avg_abs_trace": 2.1461116666666675,
        "tensors": [
            [
                [
                    1.34117,
                    -0.00677,
                    -1e-05
                ],
                [
                    0.00675,
                    1.34121,
                    3e-05
                ],
                [
                    0.0,
                    -0.0,
                    1.13068
                ]
            ],
            [
                [
                    1.34114,
                    -0.00677,
                    -1e-05
                ],
                [
                    0.00673,
                    1.34116,
                    -5e-05
                ],
                [
                    0.0,
                    -0.0,
                    1.13068
                ]
            ],
            [
                [
                    1.34117,
                    -0.00677,
                    1e-05
                ],
                [
                    0.00675,
                    1.34121,
                    -3e-05
                ],
                [
                    0.0,
                    -0.0,
                    1.13059
                ]
            ],
            [
                [
                    1.34114,
                    -0.00677,
                    1e-05
                ],
                [
                    0.00673,
                    1.34116,
                    5e-05
                ],
                [
                    0.0,
                    -0.0,
                    1.13059
                ]
            ],
            [
                [
                    3.44734,
                    0.06885,
                    0.0
                ],
                [
                    0.45451,
                    2.75442,
                    0.0
                ],
                [
                    0.0,
                    0.0,
                    3.14489
                ]
            ],
            [
                [
                    2.70097,
                    -0.0238,
                    0.0
                ],
                [
                    0.36223,
                    3.50065,
                    0.0
                ],
                [
                    -0.0,
                    0.0,
                    3.14489
                ]
            ],
            [
                [
                    3.1542,
                    -0.62373,
                    0.0
                ],
                [
                    -0.23775,
                    3.04733,
                    0.0
                ],
                [
                    0.0,
                    -0.0,
                    3.14489
                ]
            ],
            [
                [
                    3.15424,
                    -0.62367,
                    0.0
                ],
                [
                    -0.2378,
                    3.04713,
                    0.0
                ],
                [
                    -0.0,
                    0.0,
                    3.14489
                ]
            ],
            [
                [
                    2.70097,
                    -0.02381,
                    0.0
                ],
                [
                    0.36196,
                    3.50066,
                    0.0
                ],
                [
                    0.0,
                    -0.0,
                    3.14489
                ]
            ],
            [
                [
                    3.44722,
                    0.06873,
                    0.0
                ],
                [
                    0.45444,
                    2.75439,
                    0.0
                ],
                [
                    -0.0,
                    -0.0,
                    3.14489
                ]
            ],
            [
                [
                    4.005,
                    0.3002,
                    0.00034
                ],
                [
                    -0.30039,
                    4.00488,
                    0.00036
                ],
                [
                    0.0,
                    -0.0,
                    4.61222
                ]
            ],
            [
                [
                    4.005,
                    0.3002,
                    -0.00034
                ],
                [
                    -0.30039,
                    4.00488,
                    -0.00036
                ],
                [
                    0.0,
                    -0.0,
                    4.61222
                ]
            ],
            [
                [
                    -1.7473,
                    -0.29767,
                    0.64174
                ],
                [
                    -0.3275,
                    -1.49178,
                    0.38162
                ],
                [
                    0.53537,
                    0.22899,
                    -2.14145
                ]
            ],
            [
                [
                    -1.28501,
                    0.06072,
                    -0.00983
                ],
                [
                    0.03089,
                    -1.95402,
                    0.74629
                ],
                [
                    0.06938,
                    0.57814,
                    -2.14145
                ]
            ],
            [
                [
                    -1.8263,
                    0.28177,
                    0.65111
                ],
                [
                    0.25202,
                    -1.41263,
                    -0.3648
                ],
                [
                    0.46599,
                    -0.34915,
                    -2.14145
                ]
            ],
            [
                [
                    -1.82634,
                    0.28169,
                    -0.65113
                ],
                [
                    0.25209,
                    -1.41267,
                    0.36481
                ],
                [
                    -0.46599,
                    0.34915,
                    -2.14145
                ]
            ],
            [
                [
                    -1.28505,
                    0.06068,
                    0.00966
                ],
                [
                    0.03079,
                    -1.95404,
                    -0.74636
                ],
                [
                    -0.06938,
                    -0.57814,
                    -2.14145
                ]
            ],
            [
                [
                    -1.74729,
                    -0.29763,
                    -0.64166
                ],
                [
                    -0.32743,
                    -1.49177,
                    -0.38172
                ],
                [
                    -0.53537,
                    -0.22899,
                    -2.14145
                ]
            ],
            [
                [
                    -1.74729,
                    -0.29763,
                    0.64166
                ],
                [
                    -0.32743,
                    -1.49177,
                    0.38172
                ],
                [
                    0.53539,
                    0.22892,
                    -2.14144
                ]
            ],
            [
                [
                    -1.28505,
                    0.06068,
                    -0.00966
                ],
                [
                    0.03079,
                    -1.95404,
                    0.74636
                ],
                [
                    0.06944,
                    0.57813,
                    -2.14144
                ]
            ],
            [
                [
                    -1.82634,
                    0.28169,
                    0.65113
                ],
                [
                    0.25209,
                    -1.41267,
                    -0.36481
                ],
                [
                    0.46595,
                    -0.3492,
                    -2.14144
                ]
            ],
            [
                [
                    -1.8263,
                    0.28177,
                    -0.65111
                ],
                [
                    0.25202,
                    -1.41263,
                    0.3648
                ],
                [
                    -0.46595,
                    0.3492,
                    -2.14144
                ]
            ],
            [
                [
                    -1.28501,
                    0.06072,
                    0.00983
                ],
                [
                    0.03089,
                    -1.95402,
                    -0.74629
                ],
                [
                    -0.06944,
                    -0.57813,
                    -2.14144
                ]
            ],
            [
                [
                    -1.7473,
                    -0.29767,
                    -0.64174
                ],
                [
                    -0.3275,
                    -1.49178,
                    -0.38162
                ],
                [
                    -0.53539,
                    -0.22892,
                    -2.14144
                ]
            ],
            [
                [
                    -2.78569,
                    0.38303,
                    0.0
                ],
                [
                    0.24769,
                    -1.39608,
                    0.0
                ],
                [
                    -0.0,
                    -1e-05,
                    -1.15317
                ]
            ],
            [
                [
                    -2.01646,
                    -0.6921,
                    0.0
                ],
                [
                    -0.82681,
                    -2.16523,
                    0.0
                ],
                [
                    1e-05,
                    -1e-05,
                    -1.15317
                ]
            ],
            [
                [
                    -1.47041,
                    0.5116,
                    0.0
                ],
                [
                    0.37661,
                    -2.71132,
                    0.0
                ],
                [
                    -1e-05,
                    -0.0,
                    -1.15317
                ]
            ],
            [
                [
                    -1.4702,
                    0.5118,
                    0.0
                ],
                [
                    0.37634,
                    -2.71152,
                    0.0
                ],
                [
                    1e-05,
                    0.0,
                    -1.15317
                ]
            ],
            [
                [
                    -2.01653,
                    -0.69191,
                    0.0
                ],
                [
                    -0.8272,
                    -2.1653,
                    0.0
                ],
                [
                    -1e-05,
                    1e-05,
                    -1.15317
                ]
            ],
            [
                [
                    -2.78575,
                    0.38258,
                    0.0
                ],
                [
                    0.2479,
                    -1.39584,
                    0.0
                ],
                [
                    0.0,
                    1e-05,
                    -1.15317
                ]
            ]
        ]
    },
    "band_gap": 3.9784000000000006,
    "is_direct": false,
    "formula": "Rb2Si3SnO9"
}