{
    "mp_id": "mp-18733",
    "nelements": 4,
    "nsites": 12,
    "elements": [
        "Al",
        "Mo",
        "O",
        "Tl"
    ],
    "structure": {
        "@module": "pymatgen.core.structure",
        "@class": "Structure",
        "charge": null,
        "lattice": {
            "matrix": [
                [
                    5.59244469,
                    0.0,
                    0.0
                ],
                [
                    -2.79622185,
                    4.84319856,
                    0.0
                ],
                [
                    0.0,
                    0.0,
                    7.28953752
                ]
            ],
            "a": 5.59244469,
            "b": 5.592443913532214,
            "c": 7.28953752,
            "alpha": 90.0,
            "beta": 90.0,
            "gamma": 119.99999873694063,
            "volume": 197.4394568877392
        },
        "sites": [
            {
                "species": [
                    {
                        "element": "Al",
                        "occu": 1
                    }
                ],
                "abc": [
                    0.0,
                    0.0,
                    0.0
                ],
                "xyz": [
                    0.0,
                    0.0,
                    0.0
                ],
                "label": "Al",
                "properties": {}
            },
            {
                "species": [
                    {
                        "element": "Tl",
                        "occu": 1
                    }
                ],
                "abc": [
                    0.0,
                    0.0,
                    0.5
                ],
                "xyz": [
                    0.0,
                    0.0,
                    3.64476876
                ],
                "label": "Tl",
                "properties": {}
            },
            {
                "species": [
                    {
                        "element": "Mo",
                        "occu": 1
                    }
                ],
                "abc": [
                    0.666667,
                    0.333333,
                    0.22927409
                ],
                "xyz": [
                    2.79622530622218,
                    1.61439790560048,
                    1.6713020814188568
                ],
                "label": "Mo",
                "properties": {}
            },
            {
                "species": [
                    {
                        "element": "Mo",
                        "occu": 1
                    }
                ],
                "abc": [
                    0.333333,
                    0.666667,
                    0.77072591
                ],
                "xyz": [
                    -2.466222180030897e-06,
                    3.22880065439952,
                    5.618235438581143
                ],
                "label": "Mo",
                "properties": {}
            },
            {
                "species": [
                    {
                        "element": "O",
                        "occu": 1
                    }
                ],
                "abc": [
                    0.84307252,
                    0.15692748,
                    0.15333896
                ],
                "xyz": [
                    4.276032389317481,
                    0.7600309451604289,
                    1.117770102197779
                ],
                "label": "O",
                "properties": {}
            },
            {
                "species": [
                    {
                        "element": "O",
                        "occu": 1
                    }
                ],
                "abc": [
                    0.84307252,
                    0.68614503,
                    0.15333896
                ],
                "xyz": [
                    2.7962227126040133,
                    3.323136621247157,
                    1.117770102197779
                ],
                "label": "O",
                "properties": {}
            },
            {
                "species": [
                    {
                        "element": "O",
                        "occu": 1
                    }
                ],
                "abc": [
                    0.31385497,
                    0.15692748,
                    0.15333896
                ],
                "xyz": [
                    1.3164125119651713,
                    0.7600309451604289,
                    1.117770102197779
                ],
                "label": "O",
                "properties": {}
            },
            {
                "species": [
                    {
                        "element": "O",
                        "occu": 1
                    }
                ],
                "abc": [
                    0.68614503,
                    0.84307252,
                    0.84666104
                ],
                "xyz": [
                    1.4798103280348291,
                    4.083167614839572,
                    6.17176741780222
                ],
                "label": "O",
                "properties": {}
            },
            {
                "species": [
                    {
                        "element": "O",
                        "occu": 1
                    }
                ],
                "abc": [
                    0.333333,
                    0.666667,
                    0.53152573
                ],
                "xyz": [
                    -2.466222180030897e-06,
                    3.22880065439952,
                    3.8745767516803897
                ],
                "label": "O",
                "properties": {}
            },
            {
                "species": [
                    {
                        "element": "O",
                        "occu": 1
                    }
                ],
                "abc": [
                    0.666667,
                    0.333333,
                    0.46847427
                ],
                "xyz": [
                    2.79622530622218,
                    1.61439790560048,
                    3.4149607683196104
                ],
                "label": "O",
                "properties": {}
            },
            {
                "species": [
                    {
                        "element": "O",
                        "occu": 1
                    }
                ],
                "abc": [
                    0.15692748,
                    0.84307252,
                    0.84666104
                ],
                "xyz": [
                    -1.4798095493174803,
                    4.083167614839572,
                    6.17176741780222
                ],
                "label": "O",
                "properties": {}
            },
            {
                "species": [
                    {
                        "element": "O",
                        "occu": 1
                    }
                ],
                "abc": [
                    0.15692748,
                    0.31385497,
                    0.84666104
                ],
                "xyz": [
                    1.2739598675981512e-07,
                    1.5200619387528433,
                    6.17176741780222
                ],
                "label": "O",
                "properties": {}
            }
        ]
    },
    "spacegroup": {
        "source": "spglib",
        "symbol": "P-3m1",
        "number": 164,
        "point_group": "-3m",
        "crystal_system": "trigonal",
        "hall": "-P 3 2\""
    },
    "dielectric": {
        "epsilon_ionic": [
            [
                7.53198727,
                -8e-08,
                0.0
            ],
            [
                -8e-08,
                7.53291618,
                -0.00042135
            ],
            [
                0.0,
                -0.00042135,
                4.6541849
            ]
        ],
        "epsilon_ionic_avg": 6.573029449999999,
        "epsilon_ionic_eig": [
            7.5319872699931105,
            7.532916241678436,
            4.65418483832845
        ],
        "epsilon_electronic": [
            [
                3.59235743,
                0.0,
                0.0
            ],
            [
                -0.0,
                3.59235806,
                -0.0
            ],
            [
                0.0,
                -0.0,
                3.3112094
            ]
        ],
        "epsilon_electronic_avg": 3.4986416300000003,
        "epsilon_electronic_eig": [
            3.59235743,
            3.59235806,
            3.3112094
        ]
    },
    "phonon": {
        "lowest_freq": -0.0879845257382093,
        "frequency": [
            -0.0879845257382093,
            -0.08798451796047348,
            -0.051003812493433255,
            1.0279671625847122,
            1.027967252930055,
            1.599493498423015,
            1.7303033571833908,
            1.7303034631186258,
            1.9476898981681847,
            4.55517363179596,
            4.555173924206477,
            4.588896917328869,
            4.588897266175406,
            4.804643467798919,
            5.173760319115806,
            8.407662502291473,
            8.515160058687707,
            8.515160288301832,
            9.770704779024078,
            9.770705354335991,
            9.865371376407197,
            9.865371946198502,
            10.567329972304279,
            10.567330180455361,
            11.15701428023886,
            12.52734598390127,
            12.527346920349093,
            13.478027815536382,
            23.80045924817396,
            23.80046042907615,
            25.53585359333044,
            25.53585464612524,
            26.07662234831217,
            27.424244402258886,
            28.68158722890262,
            29.296259025423378
        ]
    },
    "born_effective_charge": {
        "avg_abs_trace": 2.2510366666666664,
        "tensors": [
            [
                [
                    4.81103,
                    -0.0,
                    0.0
                ],
                [
                    -0.0,
                    4.81105,
                    4e-05
                ],
                [
                    0.0,
                    -0.0,
                    4.34491
                ]
            ],
            [
                [
                    1.71739,
                    -0.0,
                    0.0
                ],
                [
                    -0.0,
                    1.71757,
                    -0.00035
                ],
                [
                    0.0,
                    -0.0,
                    1.85978
                ]
            ],
            [
                [
                    3.73316,
                    0.00014,
                    1e-05
                ],
                [
                    -0.0,
                    3.73334,
                    5e-05
                ],
                [
                    0.0,
                    -0.0,
                    3.16194
                ]
            ],
            [
                [
                    3.73316,
                    -0.00014,
                    -1e-05
                ],
                [
                    -0.0,
                    3.73298,
                    -0.00011
                ],
                [
                    0.0,
                    -0.0,
                    3.16236
                ]
            ],
            [
                [
                    -2.75164,
                    1.10439,
                    0.72705
                ],
                [
                    1.10456,
                    -1.47611,
                    -0.4198
                ],
                [
                    0.64674,
                    -0.3734,
                    -1.35414
                ]
            ],
            [
                [
                    -0.83842,
                    0.00014,
                    1e-05
                ],
                [
                    -0.0,
                    -3.38919,
                    0.83964
                ],
                [
                    -0.0,
                    0.74679,
                    -1.35414
                ]
            ],
            [
                [
                    -2.75117,
                    -1.10509,
                    -0.72718
                ],
                [
                    -1.10456,
                    -1.47611,
                    -0.4198
                ],
                [
                    -0.64674,
                    -0.3734,
                    -1.35414
                ]
            ],
            [
                [
                    -2.75164,
                    -1.10439,
                    -0.72705
                ],
                [
                    -1.10445,
                    -1.47601,
                    -0.41964
                ],
                [
                    -0.64684,
                    -0.37346,
                    -1.35408
                ]
            ],
            [
                [
                    -0.65613,
                    8e-05,
                    -5e-05
                ],
                [
                    -0.0,
                    -0.65611,
                    4e-05
                ],
                [
                    0.0,
                    -0.0,
                    -2.20246
                ]
            ],
            [
                [
                    -0.65613,
                    -8e-05,
                    5e-05
                ],
                [
                    -0.0,
                    -0.65615,
                    3e-05
                ],
                [
                    0.0,
                    -0.0,
                    -2.20186
                ]
            ],
            [
                [
                    -2.75117,
                    1.10509,
                    0.72718
                ],
                [
                    1.10445,
                    -1.47601,
                    -0.41964
                ],
                [
                    0.64684,
                    -0.37346,
                    -1.35408
                ]
            ],
            [
                [
                    -0.83842,
                    -0.00014,
                    -1e-05
                ],
                [
                    -0.0,
                    -3.38926,
                    0.83953
                ],
                [
                    0.0,
                    0.74691,
                    -1.35408
                ]
            ]
        ]
    },
    "band_gap": 3.778,
    "is_direct": false,
    "formula": "AlTl(MoO4)2"
}