{
    "mp_id": "mp-1223746",
    "nelements": 4,
    "nsites": 21,
    "elements": [
        "In",
        "O",
        "Pb",
        "Sb"
    ],
    "structure": {
        "@module": "pymatgen.core.structure",
        "@class": "Structure",
        "charge": null,
        "lattice": {
            "matrix": [
                [
                    3.76374701,
                    2.17300022,
                    6.10379229
                ],
                [
                    -3.76374701,
                    2.17300022,
                    6.10379229
                ],
                [
                    0.0,
                    -4.34600045,
                    6.10379229
                ]
            ],
            "a": 7.492930123180613,
            "b": 7.492930123180613,
            "c": 7.492930016413049,
            "alpha": 60.305417814741546,
            "beta": 60.305417814741546,
            "gamma": 60.305420236566476,
            "volume": 299.523699478209
        },
        "sites": [
            {
                "species": [
                    {
                        "element": "In",
                        "occu": 1
                    }
                ],
                "abc": [
                    0.50031436,
                    0.50031436,
                    0.50031436
                ],
                "xyz": [
                    0.0,
                    -5.003143677129174e-09,
                    9.161444799432852
                ],
                "label": "In",
                "properties": {}
            },
            {
                "species": [
                    {
                        "element": "Sb",
                        "occu": 1
                    }
                ],
                "abc": [
                    0.50003788,
                    0.00129352,
                    0.50003788
                ],
                "xyz": [
                    1.8771475937043638,
                    -1.083771609004138,
                    6.1121500907068524
                ],
                "label": "Sb",
                "properties": {}
            },
            {
                "species": [
                    {
                        "element": "Sb",
                        "occu": 1
                    }
                ],
                "abc": [
                    0.50003788,
                    0.50003788,
                    0.00129352
                ],
                "xyz": [
                    0.0,
                    2.167543207994583,
                    6.1121500907068524
                ],
                "label": "Sb",
                "properties": {}
            },
            {
                "species": [
                    {
                        "element": "Sb",
                        "occu": 1
                    }
                ],
                "abc": [
                    0.00129352,
                    0.50003788,
                    0.50003788
                ],
                "xyz": [
                    -1.8771475937043638,
                    -1.083771609004138,
                    6.1121500907068524
                ],
                "label": "Sb",
                "properties": {}
            },
            {
                "species": [
                    {
                        "element": "Pb",
                        "occu": 1
                    }
                ],
                "abc": [
                    0.99663011,
                    0.99663011,
                    0.99663011
                ],
                "xyz": [
                    0.0,
                    -9.966301561803448e-09,
                    18.24966954419956
                ],
                "label": "Pb",
                "properties": {}
            },
            {
                "species": [
                    {
                        "element": "Pb",
                        "occu": 1
                    }
                ],
                "abc": [
                    0.00051314,
                    0.50064712,
                    0.00051314
                ],
                "xyz": [
                    -1.8823777718243997,
                    1.0867912485643443,
                    3.0621102310180865
                ],
                "label": "Pb",
                "properties": {}
            },
            {
                "species": [
                    {
                        "element": "Pb",
                        "occu": 1
                    }
                ],
                "abc": [
                    0.00051314,
                    0.00051314,
                    0.50064712
                ],
                "xyz": [
                    0.0,
                    -2.1735825021454227,
                    3.062110231018086
                ],
                "label": "Pb",
                "properties": {}
            },
            {
                "species": [
                    {
                        "element": "Pb",
                        "occu": 1
                    }
                ],
                "abc": [
                    0.50064712,
                    0.00051314,
                    0.00051314
                ],
                "xyz": [
                    1.8823777718243997,
                    1.0867912485643443,
                    3.0621102310180865
                ],
                "label": "Pb",
                "properties": {}
            },
            {
                "species": [
                    {
                        "element": "O",
                        "occu": 1
                    }
                ],
                "abc": [
                    0.41547781,
                    0.85077834,
                    0.41547781
                ],
                "xyz": [
                    -1.6383610682389154,
                    0.9459081433013385,
                    10.264954778879169
                ],
                "label": "O",
                "properties": {}
            },
            {
                "species": [
                    {
                        "element": "O",
                        "occu": 1
                    }
                ],
                "abc": [
                    0.81874292,
                    0.41962816,
                    0.81874292
                ],
                "xyz": [
                    1.502166984596868,
                    -0.8672764694726767,
                    12.55619657285106
                ],
                "label": "O",
                "properties": {}
            },
            {
                "species": [
                    {
                        "element": "O",
                        "occu": 1
                    }
                ],
                "abc": [
                    0.41547781,
                    0.41547781,
                    0.85077834
                ],
                "xyz": [
                    0.0,
                    -1.8918163034200164,
                    10.264954778879169
                ],
                "label": "O",
                "properties": {}
            },
            {
                "species": [
                    {
                        "element": "O",
                        "occu": 1
                    }
                ],
                "abc": [
                    0.81874292,
                    0.81874292,
                    0.41962816
                ],
                "xyz": [
                    0.0,
                    1.734552918374213,
                    12.55619657285106
                ],
                "label": "O",
                "properties": {}
            },
            {
                "species": [
                    {
                        "element": "O",
                        "occu": 1
                    }
                ],
                "abc": [
                    0.41962816,
                    0.81874292,
                    0.81874292
                ],
                "xyz": [
                    -1.502166984596868,
                    -0.8672764694726767,
                    12.55619657285106
                ],
                "label": "O",
                "properties": {}
            },
            {
                "species": [
                    {
                        "element": "O",
                        "occu": 1
                    }
                ],
                "abc": [
                    0.85077834,
                    0.41547781,
                    0.41547781
                ],
                "xyz": [
                    1.6383610682389154,
                    0.9459081433013385,
                    10.264954778879169
                ],
                "label": "O",
                "properties": {}
            },
            {
                "species": [
                    {
                        "element": "O",
                        "occu": 1
                    }
                ],
                "abc": [
                    0.58261075,
                    0.15311475,
                    0.58261075
                ],
                "xyz": [
                    1.6165142858069599,
                    -0.9332949083152275,
                    8.046850638377512
                ],
                "label": "O",
                "properties": {}
            },
            {
                "species": [
                    {
                        "element": "O",
                        "occu": 1
                    }
                ],
                "abc": [
                    0.18353328,
                    0.57984244,
                    0.18353328
                ],
                "xyz": [
                    -1.4916074159856114,
                    0.8611798900326824,
                    5.77973585353161
                ],
                "label": "O",
                "properties": {}
            },
            {
                "species": [
                    {
                        "element": "O",
                        "occu": 1
                    }
                ],
                "abc": [
                    0.58261075,
                    0.58261075,
                    0.15311475
                ],
                "xyz": [
                    0.0,
                    1.8665898034470922,
                    8.046850638377512
                ],
                "label": "O",
                "properties": {}
            },
            {
                "species": [
                    {
                        "element": "O",
                        "occu": 1
                    }
                ],
                "abc": [
                    0.18353328,
                    0.18353328,
                    0.57984244
                ],
                "xyz": [
                    0.0,
                    -1.7223597895344547,
                    5.77973585353161
                ],
                "label": "O",
                "properties": {}
            },
            {
                "species": [
                    {
                        "element": "O",
                        "occu": 1
                    }
                ],
                "abc": [
                    0.57984244,
                    0.18353328,
                    0.18353328
                ],
                "xyz": [
                    1.4916074159856114,
                    0.8611798900326824,
                    5.77973585353161
                ],
                "label": "O",
                "properties": {}
            },
            {
                "species": [
                    {
                        "element": "O",
                        "occu": 1
                    }
                ],
                "abc": [
                    0.15311475,
                    0.58261075,
                    0.58261075
                ],
                "xyz": [
                    -1.6165142858069599,
                    -0.9332949083152275,
                    8.046850638377512
                ],
                "label": "O",
                "properties": {}
            },
            {
                "species": [
                    {
                        "element": "O",
                        "occu": 1
                    }
                ],
                "abc": [
                    0.12091565,
                    0.12091565,
                    0.12091565
                ],
                "xyz": [
                    0.0,
                    -1.2091564416394363e-09,
                    2.2141320366310158
                ],
                "label": "O",
                "properties": {}
            }
        ]
    },
    "spacegroup": {
        "source": "spglib",
        "symbol": "R3m",
        "number": 160,
        "point_group": "3m",
        "crystal_system": "trigonal",
        "hall": "R 3 -2\""
    },
    "dielectric": {
        "epsilon_ionic": [
            [
                22.75313313,
                2.7e-06,
                -1.454e-05
            ],
            [
                2.7e-06,
                22.75329865,
                1.438e-05
            ],
            [
                -1.454e-05,
                1.438e-05,
                24.98948155
            ]
        ],
        "epsilon_ionic_avg": 23.498637776666666,
        "epsilon_ionic_eig": [
            24.989481550186994,
            22.753133085871113,
            22.753298693941883
        ],
        "epsilon_electronic": [
            [
                5.51319796,
                0.0,
                -0.0
            ],
            [
                0.0,
                5.51319791,
                -3.1e-07
            ],
            [
                0.0,
                -3.1e-07,
                5.59396851
            ]
        ],
        "epsilon_electronic_avg": 5.540121459999999,
        "epsilon_electronic_eig": [
            5.59396851000119,
            5.5131979099988095,
            5.51319796
        ]
    },
    "phonon": {
        "lowest_freq": -0.02165679808208375,
        "frequency": [
            -0.02165679808208375,
            -0.012956021837241238,
            -0.012956021780649762,
            0.9577304331025267,
            0.9577304356543944,
            1.1265336941252035,
            1.672225602703495,
            1.7944598926368691,
            1.7944598926368691,
            2.023943289640442,
            2.023943337942216,
            2.54204254765562,
            2.5730941425882716,
            2.5730941948289066,
            3.727338240516842,
            4.094070794523199,
            4.094070809447228,
            4.150397770769176,
            4.832608009440025,
            4.93464213084288,
            4.934642276948789,
            5.289696248479871,
            5.289696317784453,
            6.120516597808497,
            6.120516697636725,
            6.51104891693564,
            6.80521046072189,
            6.805210550506081,
            7.154862995271907,
            8.06112257499654,
            8.49399677439903,
            8.730543159486796,
            8.730543159486796,
            9.318707869648588,
            9.382278089202387,
            9.382278115251511,
            10.278175231562466,
            10.2781753147874,
            10.37816219286097,
            10.37816233415774,
            10.781026941380077,
            10.8067846395944,
            10.806784820517874,
            11.333075595260954,
            11.423816274009097,
            11.423816562826918,
            12.722690007051533,
            12.722690227964051,
            13.128975968577311,
            13.345179855625506,
            14.177502496200033,
            16.72102596145301,
            16.721026107616364,
            17.245042644849185,
            18.77034531549583,
            18.770345380598556,
            18.976633142424983,
            20.36744647478774,
            20.36744683477415,
            20.891617394086403,
            21.552993929201595,
            22.50322861199976,
            22.50322861199976
        ]
    },
    "born_effective_charge": {
        "avg_abs_trace": 3.0239911111111106,
        "tensors": [
            [
                [
                    3.80642,
                    0.0,
                    -0.0
                ],
                [
                    -0.0,
                    3.80644,
                    -1e-05
                ],
                [
                    -0.0,
                    -0.0,
                    3.23697
                ]
            ],
            [
                [
                    4.81337,
                    0.29892,
                    0.60625
                ],
                [
                    0.29893,
                    5.15854,
                    -0.35002
                ],
                [
                    0.23852,
                    -0.13771,
                    4.94717
                ]
            ],
            [
                [
                    5.33111,
                    0.0,
                    0.0
                ],
                [
                    -0.0,
                    4.6408,
                    0.70004
                ],
                [
                    -0.0,
                    0.27541,
                    4.94717
                ]
            ],
            [
                [
                    4.81337,
                    -0.29892,
                    -0.60626
                ],
                [
                    -0.29893,
                    5.15854,
                    -0.35002
                ],
                [
                    -0.23852,
                    -0.13771,
                    4.94717
                ]
            ],
            [
                [
                    3.61724,
                    1e-05,
                    0.0
                ],
                [
                    -0.0,
                    3.61716,
                    0.0
                ],
                [
                    -0.0,
                    -0.0,
                    2.85896
                ]
            ],
            [
                [
                    3.04764,
                    0.32366,
                    0.40795
                ],
                [
                    0.32372,
                    3.42135,
                    -0.23554
                ],
                [
                    0.36495,
                    -0.21071,
                    3.38277
                ]
            ],
            [
                [
                    3.60824,
                    2e-05,
                    -1e-05
                ],
                [
                    -0.0,
                    2.86074,
                    0.47103
                ],
                [
                    -0.0,
                    0.42141,
                    3.38277
                ]
            ],
            [
                [
                    3.04762,
                    -0.32368,
                    -0.40796
                ],
                [
                    -0.32372,
                    3.42135,
                    -0.23554
                ],
                [
                    -0.36495,
                    -0.21071,
                    3.38277
                ]
            ],
            [
                [
                    -2.20814,
                    -0.00484,
                    -0.0793
                ],
                [
                    -0.00486,
                    -2.21369,
                    0.04578
                ],
                [
                    -0.06764,
                    0.03905,
                    -2.7101
                ]
            ],
            [
                [
                    -2.47587,
                    -0.40012,
                    -0.08811
                ],
                [
                    -0.40009,
                    -2.93785,
                    0.05086
                ],
                [
                    -0.15821,
                    0.09134,
                    -1.93085
                ]
            ],
            [
                [
                    -2.21651,
                    -1e-05,
                    -1e-05
                ],
                [
                    -0.0,
                    -2.20535,
                    -0.09161
                ],
                [
                    -0.0,
                    -0.0781,
                    -2.7101
                ]
            ],
            [
                [
                    -3.16889,
                    0.0,
                    -0.0
                ],
                [
                    -0.0,
                    -2.24486,
                    -0.10174
                ],
                [
                    -0.0,
                    -0.18268,
                    -1.93085
                ]
            ],
            [
                [
                    -2.47587,
                    0.40011,
                    0.08811
                ],
                [
                    0.40009,
                    -2.93785,
                    0.05086
                ],
                [
                    0.15821,
                    0.09134,
                    -1.93085
                ]
            ],
            [
                [
                    -2.20812,
                    0.00483,
                    0.07929
                ],
                [
                    0.00486,
                    -2.21369,
                    0.04578
                ],
                [
                    0.06764,
                    0.03905,
                    -2.7101
                ]
            ],
            [
                [
                    -2.17067,
                    0.03403,
                    -0.07006
                ],
                [
                    0.03405,
                    -2.13147,
                    0.04049
                ],
                [
                    -0.05944,
                    0.03432,
                    -2.73076
                ]
            ],
            [
                [
                    -2.48321,
                    -0.40317,
                    -0.11686
                ],
                [
                    -0.40317,
                    -2.94878,
                    0.06745
                ],
                [
                    -0.21565,
                    0.12451,
                    -1.92461
                ]
            ],
            [
                [
                    -2.11176,
                    1e-05,
                    1e-05
                ],
                [
                    -0.0,
                    -2.1903,
                    -0.08088
                ],
                [
                    -0.0,
                    -0.06864,
                    -2.73076
                ]
            ],
            [
                [
                    -3.1815,
                    0.0,
                    -0.0
                ],
                [
                    -0.0,
                    -2.25049,
                    -0.13494
                ],
                [
                    -0.0,
                    -0.24901,
                    -1.92461
                ]
            ],
            [
                [
                    -2.48321,
                    0.40319,
                    0.11687
                ],
                [
                    0.40317,
                    -2.94878,
                    0.06745
                ],
                [
                    0.21565,
                    0.12451,
                    -1.92461
                ]
            ],
            [
                [
                    -2.1707,
                    -0.03404,
                    0.0701
                ],
                [
                    -0.03405,
                    -2.13147,
                    0.04049
                ],
                [
                    0.05944,
                    0.03432,
                    -2.73076
                ]
            ],
            [
                [
                    -2.73057,
                    -2e-05,
                    2e-05
                ],
                [
                    -0.0,
                    -2.73038,
                    6e-05
                ],
                [
                    -0.0,
                    0.0,
                    -3.19682
                ]
            ]
        ]
    },
    "band_gap": 1.2604000000000006,
    "is_direct": false,
    "formula": "InSb3Pb4O13"
}