{
    "mp_id": "mp-1192743",
    "nelements": 4,
    "nsites": 28,
    "elements": [
        "Ge",
        "O",
        "Pb",
        "Sr"
    ],
    "structure": {
        "@module": "pymatgen.core.structure",
        "@class": "Structure",
        "charge": null,
        "lattice": {
            "matrix": [
                [
                    6.01593773,
                    0.0,
                    0.0
                ],
                [
                    0.0,
                    7.24646691,
                    0.0
                ],
                [
                    0.0,
                    0.0,
                    9.97159215
                ]
            ],
            "a": 6.01593773,
            "b": 7.24646691,
            "c": 9.97159215,
            "alpha": 90.0,
            "beta": 90.0,
            "gamma": 90.0,
            "volume": 434.7045167745665
        },
        "sites": [
            {
                "species": [
                    {
                        "element": "Sr",
                        "occu": 1
                    }
                ],
                "abc": [
                    0.47725353,
                    0.74831108,
                    0.7944941
                ],
                "xyz": [
                    2.871127517902687,
                    5.4226114796063625,
                    7.922371130781314
                ],
                "label": "Sr",
                "properties": {}
            },
            {
                "species": [
                    {
                        "element": "Sr",
                        "occu": 1
                    }
                ],
                "abc": [
                    0.97725353,
                    0.75168892,
                    0.2055059
                ],
                "xyz": [
                    5.879096382902687,
                    5.447088885393637,
                    2.0492210192186846
                ],
                "label": "Sr",
                "properties": {}
            },
            {
                "species": [
                    {
                        "element": "Sr",
                        "occu": 1
                    }
                ],
                "abc": [
                    0.02274647,
                    0.25168892,
                    0.2944941
                ],
                "xyz": [
                    0.1368413470973131,
                    1.823855430393637,
                    2.9365750557813146
                ],
                "label": "Sr",
                "properties": {}
            },
            {
                "species": [
                    {
                        "element": "Sr",
                        "occu": 1
                    }
                ],
                "abc": [
                    0.52274647,
                    0.24831108,
                    0.7055059
                ],
                "xyz": [
                    3.1448102120973127,
                    1.7993780246063626,
                    7.035017094218685
                ],
                "label": "Sr",
                "properties": {}
            },
            {
                "species": [
                    {
                        "element": "Ge",
                        "occu": 1
                    }
                ],
                "abc": [
                    0.52278522,
                    0.96384064,
                    0.0870154
                ],
                "xyz": [
                    3.1450433296843507,
                    6.984439304273223,
                    0.86768207956911
                ],
                "label": "Ge",
                "properties": {}
            },
            {
                "species": [
                    {
                        "element": "Ge",
                        "occu": 1
                    }
                ],
                "abc": [
                    0.02278522,
                    0.53615936,
                    0.9129846
                ],
                "xyz": [
                    0.13707446468435058,
                    3.8852610607267772,
                    9.10391007043089
                ],
                "label": "Ge",
                "properties": {}
            },
            {
                "species": [
                    {
                        "element": "Ge",
                        "occu": 1
                    }
                ],
                "abc": [
                    0.97721478,
                    0.03615936,
                    0.5870154
                ],
                "xyz": [
                    5.878863265315649,
                    0.2620276057267776,
                    5.8534781545691095
                ],
                "label": "Ge",
                "properties": {}
            },
            {
                "species": [
                    {
                        "element": "Ge",
                        "occu": 1
                    }
                ],
                "abc": [
                    0.47721478,
                    0.46384064,
                    0.4129846
                ],
                "xyz": [
                    2.8708944003156494,
                    3.3612058492732224,
                    4.11811399543089
                ],
                "label": "Ge",
                "properties": {}
            },
            {
                "species": [
                    {
                        "element": "Pb",
                        "occu": 1
                    }
                ],
                "abc": [
                    0.43162538,
                    0.93110959,
                    0.40667545
                ],
                "xyz": [
                    2.5966314087675872,
                    6.747254833518667,
                    4.055201724817717
                ],
                "label": "Pb",
                "properties": {}
            },
            {
                "species": [
                    {
                        "element": "Pb",
                        "occu": 1
                    }
                ],
                "abc": [
                    0.93162538,
                    0.56889041,
                    0.59332455
                ],
                "xyz": [
                    5.604600273767587,
                    4.122445531481333,
                    5.916390425182281
                ],
                "label": "Pb",
                "properties": {}
            },
            {
                "species": [
                    {
                        "element": "Pb",
                        "occu": 1
                    }
                ],
                "abc": [
                    0.06837462,
                    0.06889041,
                    0.90667545
                ],
                "xyz": [
                    0.4113374562324126,
                    0.4992120764813331,
                    9.040997799817717
                ],
                "label": "Pb",
                "properties": {}
            },
            {
                "species": [
                    {
                        "element": "Pb",
                        "occu": 1
                    }
                ],
                "abc": [
                    0.56837462,
                    0.43110959,
                    0.09332455
                ],
                "xyz": [
                    3.419306321232413,
                    3.1240213785186666,
                    0.9305943501822825
                ],
                "label": "Pb",
                "properties": {}
            },
            {
                "species": [
                    {
                        "element": "O",
                        "occu": 1
                    }
                ],
                "abc": [
                    0.45447431,
                    0.06853932,
                    0.92926049
                ],
                "xyz": [
                    2.734089148844716,
                    0.4966679144139012,
                    9.266206607389153
                ],
                "label": "O",
                "properties": {}
            },
            {
                "species": [
                    {
                        "element": "O",
                        "occu": 1
                    }
                ],
                "abc": [
                    0.95447431,
                    0.43146068,
                    0.07073951
                ],
                "xyz": [
                    5.742058013844717,
                    3.1265655405860984,
                    0.7053855426108465
                ],
                "label": "O",
                "properties": {}
            },
            {
                "species": [
                    {
                        "element": "O",
                        "occu": 1
                    }
                ],
                "abc": [
                    0.04552569,
                    0.93146068,
                    0.42926049
                ],
                "xyz": [
                    0.2738797161552837,
                    6.749798995586099,
                    4.280410532389153
                ],
                "label": "O",
                "properties": {}
            },
            {
                "species": [
                    {
                        "element": "O",
                        "occu": 1
                    }
                ],
                "abc": [
                    0.54552569,
                    0.56853932,
                    0.57073951
                ],
                "xyz": [
                    3.2818485811552836,
                    4.119901369413901,
                    5.691181617610846
                ],
                "label": "O",
                "properties": {}
            },
            {
                "species": [
                    {
                        "element": "O",
                        "occu": 1
                    }
                ],
                "abc": [
                    0.74878072,
                    0.05711457,
                    0.17919744
                ],
                "xyz": [
                    4.504618184944565,
                    0.4138788415838787,
                    1.786883786004096
                ],
                "label": "O",
                "properties": {}
            },
            {
                "species": [
                    {
                        "element": "O",
                        "occu": 1
                    }
                ],
                "abc": [
                    0.24878072,
                    0.44288543,
                    0.82080256
                ],
                "xyz": [
                    1.4966493199445656,
                    3.2093546134161213,
                    8.184708363995902
                ],
                "label": "O",
                "properties": {}
            },
            {
                "species": [
                    {
                        "element": "O",
                        "occu": 1
                    }
                ],
                "abc": [
                    0.75121928,
                    0.94288543,
                    0.67919744
                ],
                "xyz": [
                    4.5192884100554345,
                    6.832588068416121,
                    6.772679861004096
                ],
                "label": "O",
                "properties": {}
            },
            {
                "species": [
                    {
                        "element": "O",
                        "occu": 1
                    }
                ],
                "abc": [
                    0.25121928,
                    0.55711457,
                    0.32080256
                ],
                "xyz": [
                    1.5113195450554344,
                    4.037112296583878,
                    3.198912288995904
                ],
                "label": "O",
                "properties": {}
            },
            {
                "species": [
                    {
                        "element": "O",
                        "occu": 1
                    }
                ],
                "abc": [
                    0.61534235,
                    0.73521361,
                    0.04535831
                ],
                "xyz": [
                    3.701861260231866,
                    5.327701096646645,
                    0.45229456793326644
                ],
                "label": "O",
                "properties": {}
            },
            {
                "species": [
                    {
                        "element": "O",
                        "occu": 1
                    }
                ],
                "abc": [
                    0.11534235,
                    0.76478639,
                    0.95464169
                ],
                "xyz": [
                    0.6938923952318655,
                    5.541999268353355,
                    9.519297582066732
                ],
                "label": "O",
                "properties": {}
            },
            {
                "species": [
                    {
                        "element": "O",
                        "occu": 1
                    }
                ],
                "abc": [
                    0.88465765,
                    0.26478639,
                    0.54535831
                ],
                "xyz": [
                    5.322045334768134,
                    1.9187658133533547,
                    5.4380906429332665
                ],
                "label": "O",
                "properties": {}
            },
            {
                "species": [
                    {
                        "element": "O",
                        "occu": 1
                    }
                ],
                "abc": [
                    0.38465765,
                    0.23521361,
                    0.45464169
                ],
                "xyz": [
                    2.3140764697681346,
                    1.7044676416466449,
                    4.533501507066733
                ],
                "label": "O",
                "properties": {}
            },
            {
                "species": [
                    {
                        "element": "O",
                        "occu": 1
                    }
                ],
                "abc": [
                    0.2827918,
                    0.99121185,
                    0.19298648
                ],
                "xyz": [
                    1.701257859354614,
                    7.182783871824883,
                    1.9243824690241318
                ],
                "label": "O",
                "properties": {}
            },
            {
                "species": [
                    {
                        "element": "O",
                        "occu": 1
                    }
                ],
                "abc": [
                    0.7827918,
                    0.50878815,
                    0.80701352
                ],
                "xyz": [
                    4.709226724354615,
                    3.6869164931751164,
                    8.047209680975868
                ],
                "label": "O",
                "properties": {}
            },
            {
                "species": [
                    {
                        "element": "O",
                        "occu": 1
                    }
                ],
                "abc": [
                    0.2172082,
                    0.00878815,
                    0.69298648
                ],
                "xyz": [
                    1.306711005645386,
                    0.0636830381751165,
                    6.910178544024131
                ],
                "label": "O",
                "properties": {}
            },
            {
                "species": [
                    {
                        "element": "O",
                        "occu": 1
                    }
                ],
                "abc": [
                    0.7172082,
                    0.49121185,
                    0.30701352
                ],
                "xyz": [
                    4.314679870645386,
                    3.5595504168248833,
                    3.0614136059758676
                ],
                "label": "O",
                "properties": {}
            }
        ]
    },
    "spacegroup": {
        "source": "spglib",
        "symbol": "P2_12_12_1",
        "number": 19,
        "point_group": "222",
        "crystal_system": "orthorhombic",
        "hall": "P 2ac 2ab"
    },
    "dielectric": {
        "epsilon_ionic": [
            [
                10.7599434,
                -1e-08,
                -1e-08
            ],
            [
                -1e-08,
                15.58222683,
                0.0
            ],
            [
                -1e-08,
                0.0,
                15.83152729
            ]
        ],
        "epsilon_ionic_avg": 14.057899173333334,
        "epsilon_ionic_eig": [
            10.7599434,
            15.83152729,
            15.582226830000007
        ],
        "epsilon_electronic": [
            [
                4.24383383,
                0.0,
                0.0
            ],
            [
                0.0,
                4.45161116,
                0.0
            ],
            [
                0.0,
                0.0,
                4.41976571
            ]
        ],
        "epsilon_electronic_avg": 4.371736899999999,
        "epsilon_electronic_eig": [
            4.24383383,
            4.45161116,
            4.41976571
        ]
    },
    "phonon": {
        "lowest_freq": -0.07234283752386027,
        "frequency": [
            -0.07234283752386027,
            -0.055388936582177015,
            -0.049112704545837986,
            1.0094811105864754,
            1.197647141312067,
            1.5221653042924572,
            1.5918977137938628,
            1.6635407676875518,
            1.8027641963900511,
            1.8448581690611627,
            1.9962518311317519,
            2.139984723223311,
            2.2500197303547513,
            2.865983637033662,
            2.9011902304758235,
            2.9247602435976363,
            3.149024788076567,
            3.1957121523642997,
            3.4901954430252937,
            3.6246116103187513,
            3.8548000260541064,
            3.896269572669943,
            3.993100994003598,
            4.199638461403896,
            4.307898688921834,
            4.504881529828433,
            4.688819324006974,
            4.832660744287557,
            4.879618626526363,
            4.924459262816979,
            4.989239417510958,
            5.178115448568189,
            5.29879737463156,
            5.317547316126316,
            5.609278885898725,
            5.663086065066081,
            5.805777210292904,
            5.810868133984627,
            5.953989256288658,
            6.077510163245755,
            6.09936462083205,
            6.136780267961907,
            6.255605873541207,
            6.376522135619073,
            6.437214853633444,
            6.97178868320025,
            7.011420813844011,
            7.15958854146562,
            8.243928326176244,
            8.41142170304386,
            8.83599027997062,
            8.968773991078479,
            9.485918249103516,
            9.499177401145737,
            9.516133236384174,
            9.795407886574006,
            9.857347049025472,
            10.475878528100663,
            10.511773384002561,
            10.845823089849603,
            11.000731330440415,
            11.102380659223712,
            11.134111965384971,
            11.409315722227772,
            11.482506443283057,
            11.500214209956331,
            12.013178932606843,
            12.491474392583383,
            19.91098948030539,
            20.03676802936876,
            20.52625072095396,
            20.797742266227022,
            20.82703309749204,
            20.969993838081884,
            21.096934322330114,
            21.517783638765,
            21.5877815720657,
            21.829419214096173,
            22.0163511214766,
            22.304457445510195,
            22.913827749369375,
            23.01568616060518,
            23.10482630261944,
            23.430259641620573
        ]
    },
    "born_effective_charge": {
        "avg_abs_trace": 2.5344502380952383,
        "tensors": [
            [
                [
                    2.71701,
                    -0.06525,
                    -0.28033
                ],
                [
                    -0.02491,
                    2.50609,
                    0.04491
                ],
                [
                    -0.24531,
                    0.01368,
                    2.59606
                ]
            ],
            [
                [
                    2.71701,
                    0.06525,
                    0.28033
                ],
                [
                    0.02489,
                    2.50607,
                    0.04484
                ],
                [
                    0.24516,
                    0.01361,
                    2.596
                ]
            ],
            [
                [
                    2.71688,
                    -0.06519,
                    0.28021
                ],
                [
                    -0.02489,
                    2.50607,
                    -0.04484
                ],
                [
                    0.24531,
                    -0.01368,
                    2.59606
                ]
            ],
            [
                [
                    2.71688,
                    0.06519,
                    -0.28021
                ],
                [
                    0.02491,
                    2.50609,
                    -0.04491
                ],
                [
                    -0.24516,
                    -0.01361,
                    2.596
                ]
            ],
            [
                [
                    2.92237,
                    -0.28474,
                    0.4863
                ],
                [
                    -0.23071,
                    3.5577,
                    0.5271
                ],
                [
                    -0.10264,
                    0.06787,
                    3.26038
                ]
            ],
            [
                [
                    2.92237,
                    0.28474,
                    -0.4863
                ],
                [
                    0.23084,
                    3.55791,
                    0.52719
                ],
                [
                    0.10273,
                    0.06783,
                    3.26039
                ]
            ],
            [
                [
                    2.92269,
                    -0.28488,
                    -0.48666
                ],
                [
                    -0.23084,
                    3.55791,
                    -0.52719
                ],
                [
                    0.10264,
                    -0.06787,
                    3.26038
                ]
            ],
            [
                [
                    2.92269,
                    0.28488,
                    0.48666
                ],
                [
                    0.23071,
                    3.5577,
                    -0.5271
                ],
                [
                    -0.10273,
                    -0.06783,
                    3.26039
                ]
            ],
            [
                [
                    2.8228,
                    0.01584,
                    0.08156
                ],
                [
                    -0.02544,
                    3.24313,
                    0.09323
                ],
                [
                    -0.12372,
                    -0.06364,
                    2.98602
                ]
            ],
            [
                [
                    2.8228,
                    -0.01584,
                    -0.08156
                ],
                [
                    0.02555,
                    3.243,
                    0.09329
                ],
                [
                    0.12355,
                    -0.06378,
                    2.98591
                ]
            ],
            [
                [
                    2.82305,
                    0.01608,
                    -0.08152
                ],
                [
                    -0.02555,
                    3.243,
                    -0.09329
                ],
                [
                    0.12372,
                    0.06364,
                    2.98602
                ]
            ],
            [
                [
                    2.82305,
                    -0.01608,
                    0.08152
                ],
                [
                    0.02544,
                    3.24313,
                    -0.09323
                ],
                [
                    -0.12355,
                    0.06378,
                    2.98591
                ]
            ],
            [
                [
                    -2.48452,
                    0.1477,
                    -0.51996
                ],
                [
                    0.04929,
                    -1.94696,
                    0.26229
                ],
                [
                    -0.61144,
                    0.20573,
                    -2.37003
                ]
            ],
            [
                [
                    -2.48452,
                    -0.1477,
                    0.51996
                ],
                [
                    -0.04942,
                    -1.94702,
                    0.2626
                ],
                [
                    0.6115,
                    0.20575,
                    -2.37004
                ]
            ],
            [
                [
                    -2.48421,
                    0.14784,
                    0.52041
                ],
                [
                    0.04942,
                    -1.94702,
                    -0.2626
                ],
                [
                    0.61144,
                    -0.20573,
                    -2.37003
                ]
            ],
            [
                [
                    -2.48421,
                    -0.14784,
                    -0.52041
                ],
                [
                    -0.04929,
                    -1.94696,
                    -0.26229
                ],
                [
                    -0.6115,
                    -0.20575,
                    -2.37004
                ]
            ],
            [
                [
                    -2.35733,
                    -0.25319,
                    -0.21398
                ],
                [
                    -0.24065,
                    -2.32941,
                    -0.28401
                ],
                [
                    -0.18196,
                    0.01689,
                    -1.97349
                ]
            ],
            [
                [
                    -2.35733,
                    0.25319,
                    0.21398
                ],
                [
                    0.24089,
                    -2.32943,
                    -0.28418
                ],
                [
                    0.18185,
                    0.01679,
                    -1.97358
                ]
            ],
            [
                [
                    -2.35777,
                    -0.25308,
                    0.21405
                ],
                [
                    -0.24089,
                    -2.32943,
                    0.28418
                ],
                [
                    0.18196,
                    -0.01689,
                    -1.97349
                ]
            ],
            [
                [
                    -2.35777,
                    0.25308,
                    -0.21405
                ],
                [
                    0.24065,
                    -2.32941,
                    0.28401
                ],
                [
                    -0.18185,
                    -0.01679,
                    -1.97358
                ]
            ],
            [
                [
                    -1.445,
                    0.43093,
                    -0.15135
                ],
                [
                    0.243,
                    -3.52509,
                    -0.10351
                ],
                [
                    -0.07548,
                    0.06684,
                    -1.58318
                ]
            ],
            [
                [
                    -1.445,
                    -0.43093,
                    0.15135
                ],
                [
                    -0.24296,
                    -3.52539,
                    -0.10353
                ],
                [
                    0.07553,
                    0.06688,
                    -1.58306
                ]
            ],
            [
                [
                    -1.44505,
                    0.43081,
                    0.15136
                ],
                [
                    0.24296,
                    -3.52539,
                    0.10353
                ],
                [
                    0.07548,
                    -0.06684,
                    -1.58318
                ]
            ],
            [
                [
                    -1.44505,
                    -0.43081,
                    -0.15136
                ],
                [
                    -0.243,
                    -3.52509,
                    0.10351
                ],
                [
                    -0.07553,
                    -0.06688,
                    -1.58306
                ]
            ],
            [
                [
                    -2.17556,
                    0.06366,
                    0.03784
                ],
                [
                    0.02957,
                    -1.50534,
                    -0.06707
                ],
                [
                    0.02448,
                    0.22082,
                    -2.91566
                ]
            ],
            [
                [
                    -2.17556,
                    -0.06366,
                    -0.03784
                ],
                [
                    -0.02972,
                    -1.50527,
                    -0.06723
                ],
                [
                    -0.02446,
                    0.22079,
                    -2.91571
                ]
            ],
            [
                [
                    -2.17535,
                    0.06325,
                    -0.03786
                ],
                [
                    0.02972,
                    -1.50527,
                    0.06723
                ],
                [
                    -0.02448,
                    -0.22082,
                    -2.91566
                ]
            ],
            [
                [
                    -2.17535,
                    -0.06325,
                    0.03786
                ],
                [
                    -0.02957,
                    -1.50534,
                    0.06707
                ],
                [
                    0.02446,
                    -0.22079,
                    -2.91571
                ]
            ]
        ]
    },
    "band_gap": 3.4478999999999997,
    "is_direct": false,
    "formula": "SrGePbO4"
}