{
    "mp_id": "mp-1020650",
    "nelements": 4,
    "nsites": 27,
    "elements": [
        "B",
        "Ge",
        "O",
        "Sr"
    ],
    "structure": {
        "@module": "pymatgen.core.structure",
        "@class": "Structure",
        "charge": null,
        "lattice": {
            "matrix": [
                [
                    5.00989416,
                    0.00022896,
                    -7.356e-05
                ],
                [
                    0.03387058,
                    7.3294697,
                    0.00069716
                ],
                [
                    1.89392781,
                    1.9719719,
                    8.0599448
                ]
            ],
            "a": 5.009894165771954,
            "b": 7.32954799325577,
            "c": 8.511071959684518,
            "alpha": 76.53738782678673,
            "beta": 77.14280255955572,
            "gamma": 89.73261105916248,
            "volume": 295.95417118186185
        },
        "sites": [
            {
                "species": [
                    {
                        "element": "Sr",
                        "occu": 1
                    }
                ],
                "abc": [
                    0.90344841,
                    0.90685597,
                    0.74010928
                ],
                "xyz": [
                    5.958610198631725,
                    8.106454911016295,
                    5.96580570881075
                ],
                "label": "Sr",
                "properties": {}
            },
            {
                "species": [
                    {
                        "element": "Sr",
                        "occu": 1
                    }
                ],
                "abc": [
                    0.09655159,
                    0.09314403,
                    0.25989072
                ],
                "xyz": [
                    0.9790823513682751,
                    1.1952156489837054,
                    2.094762691189251
                ],
                "label": "Sr",
                "properties": {}
            },
            {
                "species": [
                    {
                        "element": "Sr",
                        "occu": 1
                    }
                ],
                "abc": [
                    0.0,
                    0.5,
                    0.5
                ],
                "xyz": [
                    0.9638991950000001,
                    4.6507208,
                    4.03032098
                ],
                "label": "Sr",
                "properties": {}
            },
            {
                "species": [
                    {
                        "element": "Ge",
                        "occu": 1
                    }
                ],
                "abc": [
                    0.30291112,
                    0.68647032,
                    0.05168281
                ],
                "xyz": [
                    1.638687310136191,
                    5.133449813952378,
                    0.41701689321519203
                ],
                "label": "Ge",
                "properties": {}
            },
            {
                "species": [
                    {
                        "element": "Ge",
                        "occu": 1
                    }
                ],
                "abc": [
                    0.69708888,
                    0.31352968,
                    0.94831719
                ],
                "xyz": [
                    5.299005239863809,
                    4.168220746047622,
                    7.643551506784808
                ],
                "label": "Ge",
                "properties": {}
            },
            {
                "species": [
                    {
                        "element": "B",
                        "occu": 1
                    }
                ],
                "abc": [
                    0.54099403,
                    0.18789544,
                    0.54030688
                ],
                "xyz": [
                    3.739989184990353,
                    2.4427677849779488,
                    4.354934825524328
                ],
                "label": "B",
                "properties": {}
            },
            {
                "species": [
                    {
                        "element": "B",
                        "occu": 1
                    }
                ],
                "abc": [
                    0.45900597,
                    0.81210456,
                    0.45969312
                ],
                "xyz": [
                    3.197703365009647,
                    6.8589027750220515,
                    3.7056335744756725
                ],
                "label": "B",
                "properties": {}
            },
            {
                "species": [
                    {
                        "element": "B",
                        "occu": 1
                    }
                ],
                "abc": [
                    0.54034409,
                    0.40913695,
                    0.26038293
                ],
                "xyz": [
                    3.214070879053729,
                    3.512348416557928,
                    2.098917528867066
                ],
                "label": "B",
                "properties": {}
            },
            {
                "species": [
                    {
                        "element": "B",
                        "occu": 1
                    }
                ],
                "abc": [
                    0.45965591,
                    0.59086305,
                    0.73961707
                ],
                "xyz": [
                    3.7236216709462715,
                    5.789322143442071,
                    5.961650871132934
                ],
                "label": "B",
                "properties": {}
            },
            {
                "species": [
                    {
                        "element": "B",
                        "occu": 1
                    }
                ],
                "abc": [
                    0.73207359,
                    0.75918132,
                    0.19597142
                ],
                "xyz": [
                    4.064480837167991,
                    5.951014230758269,
                    1.579994247093387
                ],
                "label": "B",
                "properties": {}
            },
            {
                "species": [
                    {
                        "element": "B",
                        "occu": 1
                    }
                ],
                "abc": [
                    0.26792641,
                    0.24081868,
                    0.80402858
                ],
                "xyz": [
                    2.87321171283201,
                    3.3506563292417315,
                    6.480574152906613
                ],
                "label": "B",
                "properties": {}
            },
            {
                "species": [
                    {
                        "element": "O",
                        "occu": 1
                    }
                ],
                "abc": [
                    0.3774323,
                    0.10878881,
                    0.69878066
                ],
                "xyz": [
                    3.2180207407217325,
                    2.175426529276919,
                    5.6321816261943605
                ],
                "label": "O",
                "properties": {}
            },
            {
                "species": [
                    {
                        "element": "O",
                        "occu": 1
                    }
                ],
                "abc": [
                    0.6225677,
                    0.89121119,
                    0.30121934
                ],
                "xyz": [
                    3.7196718092782675,
                    7.126244030723081,
                    2.4283867738056406
                ],
                "label": "O",
                "properties": {}
            },
            {
                "species": [
                    {
                        "element": "O",
                        "occu": 1
                    }
                ],
                "abc": [
                    0.81566008,
                    0.17842063,
                    0.51120315
                ],
                "xyz": [
                    5.0605957439038,
                    2.3159936019633127,
                    4.120333558357046
                ],
                "label": "O",
                "properties": {}
            },
            {
                "species": [
                    {
                        "element": "O",
                        "occu": 1
                    }
                ],
                "abc": [
                    0.18433992,
                    0.82157937,
                    0.48879685
                ],
                "xyz": [
                    1.8770968060962003,
                    6.985676958036688,
                    3.940234841642954
                ],
                "label": "O",
                "properties": {}
            },
            {
                "species": [
                    {
                        "element": "O",
                        "occu": 1
                    }
                ],
                "abc": [
                    0.40830153,
                    0.27234697,
                    0.41639035
                ],
                "xyz": [
                    2.843385264181841,
                    2.8173624188512827,
                    3.3562430710057387
                ],
                "label": "O",
                "properties": {}
            },
            {
                "species": [
                    {
                        "element": "O",
                        "occu": 1
                    }
                ],
                "abc": [
                    0.59169847,
                    0.72765303,
                    0.58360965
                ],
                "xyz": [
                    4.094307285818159,
                    6.484308141148717,
                    4.704325328994261
                ],
                "label": "O",
                "properties": {}
            },
            {
                "species": [
                    {
                        "element": "O",
                        "occu": 1
                    }
                ],
                "abc": [
                    0.29477285,
                    0.46030521,
                    0.18937486
                ],
                "xyz": [
                    1.8510338980501344,
                    3.7473024831253072,
                    1.5266501409970858
                ],
                "label": "O",
                "properties": {}
            },
            {
                "species": [
                    {
                        "element": "O",
                        "occu": 1
                    }
                ],
                "abc": [
                    0.70522715,
                    0.53969479,
                    0.81062514
                ],
                "xyz": [
                    5.0866586519498656,
                    5.554368076874693,
                    6.533918259002914
                ],
                "label": "O",
                "properties": {}
            },
            {
                "species": [
                    {
                        "element": "O",
                        "occu": 1
                    }
                ],
                "abc": [
                    0.73804054,
                    0.31494455,
                    0.1496207
                ],
                "xyz": [
                    3.9915431504472525,
                    2.6035933342255033,
                    1.2060998594177157
                ],
                "label": "O",
                "properties": {}
            },
            {
                "species": [
                    {
                        "element": "O",
                        "occu": 1
                    }
                ],
                "abc": [
                    0.26195946,
                    0.68505545,
                    0.8503793
                ],
                "xyz": [
                    2.9461493995527475,
                    6.698077225774497,
                    6.854468540582284
                ],
                "label": "O",
                "properties": {}
            },
            {
                "species": [
                    {
                        "element": "O",
                        "occu": 1
                    }
                ],
                "abc": [
                    0.66963591,
                    0.56611795,
                    0.2964494
                ],
                "xyz": [
                    3.9354335410680106,
                    4.734087567560928,
                    2.3897112163656025
                ],
                "label": "O",
                "properties": {}
            },
            {
                "species": [
                    {
                        "element": "O",
                        "occu": 1
                    }
                ],
                "abc": [
                    0.33036409,
                    0.43388205,
                    0.7035506
                ],
                "xyz": [
                    3.0022590089319894,
                    4.567582992439071,
                    5.670857183634398
                ],
                "label": "O",
                "properties": {}
            },
            {
                "species": [
                    {
                        "element": "O",
                        "occu": 1
                    }
                ],
                "abc": [
                    0.03177217,
                    0.80985269,
                    0.14544275
                ],
                "xyz": [
                    0.46206345824626494,
                    6.2226070434332605,
                    1.1728227963007354
                ],
                "label": "O",
                "properties": {}
            },
            {
                "species": [
                    {
                        "element": "O",
                        "occu": 1
                    }
                ],
                "abc": [
                    0.96822783,
                    0.19014731,
                    0.85455725
                ],
                "xyz": [
                    6.475629091753736,
                    3.079063516566739,
                    6.8877456036992655
                ],
                "label": "O",
                "properties": {}
            },
            {
                "species": [
                    {
                        "element": "O",
                        "occu": 1
                    }
                ],
                "abc": [
                    0.6237004,
                    0.79733164,
                    0.04321864
                ],
                "xyz": [
                    3.2335320608551936,
                    5.929386842311107,
                    0.3488498410557904
                ],
                "label": "O",
                "properties": {}
            },
            {
                "species": [
                    {
                        "element": "O",
                        "occu": 1
                    }
                ],
                "abc": [
                    0.3762996,
                    0.20266836,
                    0.95678136
                ],
                "xyz": [
                    3.7041604891448063,
                    3.372283717688892,
                    7.71171855894421
                ],
                "label": "O",
                "properties": {}
            }
        ]
    },
    "spacegroup": {
        "source": "spglib",
        "symbol": "P-1",
        "number": 2,
        "point_group": "-1",
        "crystal_system": "triclinic",
        "hall": "-P 1"
    },
    "dielectric": {
        "epsilon_ionic": [
            [
                5.5538178,
                -0.52219249,
                -0.2139474
            ],
            [
                -0.52219249,
                5.35182096,
                0.08941333
            ],
            [
                -0.2139474,
                0.08941333,
                6.9255685
            ]
        ],
        "epsilon_ionic_avg": 5.9437357533333355,
        "epsilon_ionic_eig": [
            4.918646430488552,
            5.935181117149388,
            6.977379712362064
        ],
        "epsilon_electronic": [
            [
                3.17255401,
                -0.05025415,
                -0.00091287
            ],
            [
                -0.05025344,
                3.01617725,
                0.03818579
            ],
            [
                -0.00091205,
                0.0381857,
                3.20805028
            ]
        ],
        "epsilon_electronic_avg": 3.1322605133333337,
        "epsilon_electronic_eig": [
            2.995181462144932,
            3.1831105724123137,
            3.218489505442755
        ]
    },
    "phonon": {
        "lowest_freq": -0.08803898664235399,
        "frequency": [
            -0.08803898664235399,
            -0.058962201289536505,
            -0.0503578680618773,
            2.3993877827375183,
            2.414239327844867,
            2.8613330967194273,
            3.1421946195253447,
            3.215809095418671,
            3.376376245824323,
            3.838644022676295,
            4.020348773826332,
            4.167943385139583,
            4.362814240109484,
            4.501462929887672,
            4.562311751496832,
            4.60444859813983,
            4.90266283462391,
            5.400272790444973,
            5.814562444144247,
            6.121036081863015,
            6.693681837370772,
            6.896442336546123,
            7.096948865566985,
            7.475838755884344,
            7.679398765300826,
            7.6802491572297065,
            8.113531274220568,
            8.665899268843127,
            8.762668527421164,
            8.860741026825485,
            9.409639280228303,
            9.429911068540553,
            9.830993379731293,
            10.244259435411617,
            11.080751988394226,
            11.27207178488315,
            11.922270642841008,
            12.176022689245073,
            12.486830523883592,
            13.759579293792758,
            14.138709280180619,
            15.076994391160678,
            15.452113492066134,
            15.991175242022754,
            16.353358636943483,
            17.116043570379162,
            17.336419129043986,
            17.82980197186314,
            18.121911740186114,
            19.35806407978356,
            19.46585374267826,
            19.66841934427186,
            21.086349167283593,
            21.67649597972758,
            21.72343478924532,
            22.139099123195585,
            22.46604005713163,
            22.79046819141658,
            23.102145288600347,
            23.983174094328295,
            24.246465339576673,
            25.050794051551442,
            25.264546373774987,
            26.12363089365692,
            26.177295445505788,
            26.448224883501318,
            26.59704576619915,
            26.779572308315228,
            27.20780455200894,
            27.624338895944035,
            28.879623682225176,
            29.67655714291472,
            29.805685242499546,
            30.44889108357766,
            31.673121011283587,
            31.732084101265443,
            32.17753712835243,
            36.950038052218005,
            37.50305123987821,
            40.22045217232584,
            40.23042768977116
        ]
    },
    "born_effective_charge": {
        "avg_abs_trace": 2.086162222222222,
        "tensors": [
            [
                [
                    2.46877,
                    -0.06819,
                    -0.04721
                ],
                [
                    0.03963,
                    2.82259,
                    -0.05456
                ],
                [
                    0.02753,
                    -0.10311,
                    2.55332
                ]
            ],
            [
                [
                    2.46878,
                    -0.06818,
                    -0.04723
                ],
                [
                    0.03972,
                    2.82242,
                    -0.05465
                ],
                [
                    0.02742,
                    -0.10306,
                    2.55323
                ]
            ],
            [
                [
                    2.70263,
                    0.07165,
                    0.04024
                ],
                [
                    0.03133,
                    2.45884,
                    0.10977
                ],
                [
                    0.07401,
                    0.15823,
                    2.54791
                ]
            ],
            [
                [
                    3.39642,
                    -0.35405,
                    -0.0269
                ],
                [
                    -0.1813,
                    2.91006,
                    0.11696
                ],
                [
                    0.12687,
                    0.19143,
                    3.24797
                ]
            ],
            [
                [
                    3.39636,
                    -0.35403,
                    -0.02687
                ],
                [
                    -0.18141,
                    2.91009,
                    0.11708
                ],
                [
                    0.12685,
                    0.1914,
                    3.24794
                ]
            ],
            [
                [
                    2.59803,
                    -0.28312,
                    -0.16064
                ],
                [
                    -0.43474,
                    1.01873,
                    -0.18832
                ],
                [
                    0.02996,
                    -0.39741,
                    2.82051
                ]
            ],
            [
                [
                    2.59803,
                    -0.2831,
                    -0.16059
                ],
                [
                    -0.43476,
                    1.01875,
                    -0.18834
                ],
                [
                    0.02996,
                    -0.39737,
                    2.82049
                ]
            ],
            [
                [
                    2.09474,
                    0.12548,
                    0.21269
                ],
                [
                    -0.25681,
                    2.43108,
                    0.0698
                ],
                [
                    -0.12541,
                    0.30305,
                    2.61332
                ]
            ],
            [
                [
                    2.09474,
                    0.12552,
                    0.21272
                ],
                [
                    -0.25685,
                    2.43118,
                    0.06983
                ],
                [
                    -0.1254,
                    0.30303,
                    2.61333
                ]
            ],
            [
                [
                    2.81324,
                    0.2706,
                    0.18985
                ],
                [
                    0.00046,
                    2.14501,
                    0.26787
                ],
                [
                    -0.19539,
                    0.17127,
                    2.45641
                ]
            ],
            [
                [
                    2.81322,
                    0.27062,
                    0.18986
                ],
                [
                    0.00043,
                    2.14503,
                    0.26787
                ],
                [
                    -0.19545,
                    0.17126,
                    2.4564
                ]
            ],
            [
                [
                    -1.52318,
                    0.07149,
                    0.52643
                ],
                [
                    0.12237,
                    -1.60634,
                    -0.32486
                ],
                [
                    0.60934,
                    -0.31278,
                    -2.23027
                ]
            ],
            [
                [
                    -1.52325,
                    0.07145,
                    0.52656
                ],
                [
                    0.12218,
                    -1.60676,
                    -0.3245
                ],
                [
                    0.60938,
                    -0.31288,
                    -2.23021
                ]
            ],
            [
                [
                    -2.26964,
                    0.10673,
                    0.23835
                ],
                [
                    0.24031,
                    -1.5399,
                    -0.03897
                ],
                [
                    0.11289,
                    0.03739,
                    -1.63548
                ]
            ],
            [
                [
                    -2.26959,
                    0.1067,
                    0.23831
                ],
                [
                    0.24039,
                    -1.53989,
                    -0.03896
                ],
                [
                    0.11291,
                    0.0374,
                    -1.63553
                ]
            ],
            [
                [
                    -1.57674,
                    0.1762,
                    -0.42526
                ],
                [
                    0.20799,
                    -1.27232,
                    0.44456
                ],
                [
                    -0.39929,
                    0.5052,
                    -2.48296
                ]
            ],
            [
                [
                    -1.57671,
                    0.17614,
                    -0.4253
                ],
                [
                    0.20767,
                    -1.27233,
                    0.44457
                ],
                [
                    -0.39933,
                    0.50517,
                    -2.48304
                ]
            ],
            [
                [
                    -1.82856,
                    0.21061,
                    -0.21789
                ],
                [
                    0.36246,
                    -1.66828,
                    0.32242
                ],
                [
                    -0.31906,
                    0.20309,
                    -1.63688
                ]
            ],
            [
                [
                    -1.82838,
                    0.21077,
                    -0.2179
                ],
                [
                    0.36199,
                    -1.66851,
                    0.32259
                ],
                [
                    -0.31899,
                    0.2031,
                    -1.63691
                ]
            ],
            [
                [
                    -1.4985,
                    0.3557,
                    -0.04061
                ],
                [
                    0.4683,
                    -1.53449,
                    -0.51233
                ],
                [
                    0.12002,
                    -0.59466,
                    -2.18101
                ]
            ],
            [
                [
                    -1.49837,
                    0.35574,
                    -0.04046
                ],
                [
                    0.46791,
                    -1.5346,
                    -0.51246
                ],
                [
                    0.11998,
                    -0.59455,
                    -2.18109
                ]
            ],
            [
                [
                    -1.48835,
                    -0.46334,
                    -0.15539
                ],
                [
                    -0.35062,
                    -2.2413,
                    0.13146
                ],
                [
                    -0.13606,
                    0.07037,
                    -1.52404
                ]
            ],
            [
                [
                    -1.48845,
                    -0.46344,
                    -0.15566
                ],
                [
                    -0.35085,
                    -2.24143,
                    0.13134
                ],
                [
                    -0.13605,
                    0.07037,
                    -1.52415
                ]
            ],
            [
                [
                    -2.59618,
                    0.08273,
                    0.41049
                ],
                [
                    0.139,
                    -1.49526,
                    -0.21703
                ],
                [
                    0.43937,
                    -0.18223,
                    -1.3354
                ]
            ],
            [
                [
                    -2.59622,
                    0.08275,
                    0.41038
                ],
                [
                    0.13871,
                    -1.49537,
                    -0.21713
                ],
                [
                    0.43934,
                    -0.18221,
                    -1.33536
                ]
            ],
            [
                [
                    -1.9414,
                    -0.26676,
                    -0.5239
                ],
                [
                    -0.37181,
                    -1.19859,
                    -0.0718
                ],
                [
                    -0.32762,
                    0.02931,
                    -1.9393
                ]
            ],
            [
                [
                    -1.94143,
                    -0.26671,
                    -0.52406
                ],
                [
                    -0.37168,
                    -1.19842,
                    -0.07221
                ],
                [
                    -0.32781,
                    0.02921,
                    -1.9392
                ]
            ]
        ]
    },
    "band_gap": 4.3340000000000005,
    "is_direct": false,
    "formula": "Sr3Ge2(B3O8)2"
}