{
    "mp_id": "mp-27915",
    "nelements": 3,
    "nsites": 20,
    "elements": [
        "Be",
        "K",
        "O"
    ],
    "structure": {
        "@module": "pymatgen.core.structure",
        "@class": "Structure",
        "charge": null,
        "lattice": {
            "matrix": [
                [
                    7.09961913,
                    0.0,
                    0.00659854
                ],
                [
                    0.0,
                    5.78592471,
                    0.0
                ],
                [
                    -7.01421929,
                    0.0,
                    7.90266485
                ]
            ],
            "a": 7.099622196412432,
            "b": 5.78592471,
            "c": 10.566521848727405,
            "alpha": 90.0,
            "beta": 131.53825362091632,
            "gamma": 90.0,
            "volume": 324.89236767398785
        },
        "sites": [
            {
                "species": [
                    {
                        "element": "K",
                        "occu": 1
                    }
                ],
                "abc": [
                    0.25636174,
                    0.34439944,
                    0.11370306
                ],
                "xyz": [
                    1.0225325167200587,
                    1.9926692300061624,
                    0.9002487887953006
                ],
                "label": "K",
                "properties": {}
            },
            {
                "species": [
                    {
                        "element": "K",
                        "occu": 1
                    }
                ],
                "abc": [
                    0.74363826,
                    0.84439944,
                    0.38629694
                ],
                "xyz": [
                    2.569976968279941,
                    4.885631585006162,
                    3.0576821762046995
                ],
                "label": "K",
                "properties": {}
            },
            {
                "species": [
                    {
                        "element": "K",
                        "occu": 1
                    }
                ],
                "abc": [
                    0.74363826,
                    0.65560056,
                    0.88629694
                ],
                "xyz": [
                    -0.9371326767200596,
                    3.7932554799938374,
                    7.009014601204699
                ],
                "label": "K",
                "properties": {}
            },
            {
                "species": [
                    {
                        "element": "K",
                        "occu": 1
                    }
                ],
                "abc": [
                    0.25636174,
                    0.15560056,
                    0.61370306
                ],
                "xyz": [
                    -2.4845771282799403,
                    0.9002931249938375,
                    4.8515812137953
                ],
                "label": "K",
                "properties": {}
            },
            {
                "species": [
                    {
                        "element": "K",
                        "occu": 1
                    }
                ],
                "abc": [
                    0.84535535,
                    0.43929316,
                    0.2453688
                ],
                "xyz": [
                    4.280630444383693,
                    2.5417171493779835,
                    1.944645502137869
                ],
                "label": "K",
                "properties": {}
            },
            {
                "species": [
                    {
                        "element": "K",
                        "occu": 1
                    }
                ],
                "abc": [
                    0.15464465,
                    0.93929316,
                    0.2546312
                ],
                "xyz": [
                    -0.6881209593836934,
                    5.434679504377983,
                    2.013285462862131
                ],
                "label": "K",
                "properties": {}
            },
            {
                "species": [
                    {
                        "element": "K",
                        "occu": 1
                    }
                ],
                "abc": [
                    0.15464465,
                    0.56070684,
                    0.7546312
                ],
                "xyz": [
                    -4.195230604383693,
                    3.2442075606220167,
                    5.964617887862131
                ],
                "label": "K",
                "properties": {}
            },
            {
                "species": [
                    {
                        "element": "K",
                        "occu": 1
                    }
                ],
                "abc": [
                    0.84535535,
                    0.06070684,
                    0.7453688
                ],
                "xyz": [
                    0.773520799383693,
                    0.3512452056220164,
                    5.89597792713787
                ],
                "label": "K",
                "properties": {}
            },
            {
                "species": [
                    {
                        "element": "Be",
                        "occu": 1
                    }
                ],
                "abc": [
                    0.39667371,
                    0.9151791,
                    0.02197887
                ],
                "xyz": [
                    2.66206764595767,
                    5.295157368765561,
                    0.1763091107341029
                ],
                "label": "Be",
                "properties": {}
            },
            {
                "species": [
                    {
                        "element": "Be",
                        "occu": 1
                    }
                ],
                "abc": [
                    0.39667371,
                    0.5848209,
                    0.52197887
                ],
                "xyz": [
                    -0.8450419990423299,
                    3.3837296962344388,
                    4.127641535734103
                ],
                "label": "Be",
                "properties": {}
            },
            {
                "species": [
                    {
                        "element": "Be",
                        "occu": 1
                    }
                ],
                "abc": [
                    0.60332629,
                    0.0848209,
                    0.97802113
                ],
                "xyz": [
                    -2.57666780595767,
                    0.490767341234439,
                    7.732954279265897
                ],
                "label": "Be",
                "properties": {}
            },
            {
                "species": [
                    {
                        "element": "Be",
                        "occu": 1
                    }
                ],
                "abc": [
                    0.60332629,
                    0.4151791,
                    0.47802113
                ],
                "xyz": [
                    0.9304418390423304,
                    2.402195013765561,
                    3.781621854265897
                ],
                "label": "Be",
                "properties": {}
            },
            {
                "species": [
                    {
                        "element": "O",
                        "occu": 1
                    }
                ],
                "abc": [
                    0.75658714,
                    0.20442478,
                    0.94703744
                ],
                "xyz": [
                    -1.271247747344229,
                    1.1827863859383136,
                    7.4891118592287595
                ],
                "label": "O",
                "properties": {}
            },
            {
                "species": [
                    {
                        "element": "O",
                        "occu": 1
                    }
                ],
                "abc": [
                    0.3306254,
                    0.3588159,
                    0.41118573
                ],
                "xyz": [
                    -0.5368324644348297,
                    2.0760817821508892,
                    3.251644660219507
                ],
                "label": "O",
                "properties": {}
            },
            {
                "species": [
                    {
                        "element": "O",
                        "occu": 1
                    }
                ],
                "abc": [
                    0.6693746,
                    0.6411841,
                    0.58881427
                ],
                "xyz": [
                    0.6222323044348306,
                    3.709842927849111,
                    4.657618729780493
                ],
                "label": "O",
                "properties": {}
            },
            {
                "species": [
                    {
                        "element": "O",
                        "occu": 1
                    }
                ],
                "abc": [
                    0.3306254,
                    0.1411841,
                    0.91118573
                ],
                "xyz": [
                    -4.04394210943483,
                    0.816880572849111,
                    7.202977085219506
                ],
                "label": "O",
                "properties": {}
            },
            {
                "species": [
                    {
                        "element": "O",
                        "occu": 1
                    }
                ],
                "abc": [
                    0.24341286,
                    0.70442478,
                    0.55296256
                ],
                "xyz": [
                    -2.15046205765577,
                    4.075748740938313,
                    4.37148395577124
                ],
                "label": "O",
                "properties": {}
            },
            {
                "species": [
                    {
                        "element": "O",
                        "occu": 1
                    }
                ],
                "abc": [
                    0.24341286,
                    0.79557522,
                    0.05296256
                ],
                "xyz": [
                    1.3566475873442294,
                    4.603138324061686,
                    0.4201515307712404
                ],
                "label": "O",
                "properties": {}
            },
            {
                "species": [
                    {
                        "element": "O",
                        "occu": 1
                    }
                ],
                "abc": [
                    0.75658714,
                    0.29557522,
                    0.44703744
                ],
                "xyz": [
                    2.235861897655771,
                    1.7101759690616862,
                    3.5377794342287596
                ],
                "label": "O",
                "properties": {}
            },
            {
                "species": [
                    {
                        "element": "O",
                        "occu": 1
                    }
                ],
                "abc": [
                    0.6693746,
                    0.8588159,
                    0.08881427
                ],
                "xyz": [
                    4.1293419494348305,
                    4.969044137150888,
                    0.7062863047804935
                ],
                "label": "O",
                "properties": {}
            }
        ]
    },
    "spacegroup": {
        "source": "spglib",
        "symbol": "P2_1/c",
        "number": 14,
        "point_group": "2/m",
        "crystal_system": "monoclinic",
        "hall": "-P 2ybc"
    },
    "dielectric": {
        "epsilon_ionic": [
            [
                5.16096129,
                0.0,
                0.37795714
            ],
            [
                0.0,
                4.98834948,
                0.0
            ],
            [
                0.37795714,
                0.0,
                5.96003081
            ]
        ],
        "epsilon_ionic_avg": 5.369780526666666,
        "epsilon_ionic_eig": [
            5.010514573834451,
            6.11047752616555,
            4.98834948
        ],
        "epsilon_electronic": [
            [
                2.7400497,
                0.0,
                0.00969225
            ],
            [
                0.0,
                2.74089576,
                0.0
            ],
            [
                0.00969126,
                0.0,
                2.75003553
            ]
        ],
        "epsilon_electronic_avg": 2.7436603299999995,
        "epsilon_electronic_eig": [
            2.734140353081837,
            2.755944876918163,
            2.74089576
        ]
    },
    "phonon": {
        "lowest_freq": -0.03917786079836943,
        "frequency": [
            -0.03917786079836943,
            -0.03273655948562956,
            -0.015870294884280628,
            1.8036553331038765,
            2.1124883070238907,
            2.5363039640430403,
            2.587888970238389,
            2.6163427633989023,
            2.7902566912410665,
            3.0381287465547175,
            3.1469093772332903,
            3.3377405039030403,
            3.428106159174179,
            3.8518608606810236,
            3.9165684488789996,
            4.182387402188685,
            4.270694066456676,
            4.287855519516681,
            4.29018946015389,
            4.505181168814538,
            4.55804030053458,
            4.601121901224101,
            4.634628819891974,
            4.810920177250658,
            4.897304084289941,
            4.977038339721377,
            4.980651760121865,
            5.117072818825394,
            5.202260436029318,
            5.202752524100033,
            5.339027909791773,
            5.689437135430053,
            5.73477621416381,
            5.760667680763057,
            5.905487869591586,
            6.08687207780762,
            6.737851925634177,
            6.955496915302766,
            9.258467126628823,
            9.30246409308827,
            12.97383572625533,
            13.200391162181448,
            13.345577862164877,
            13.61243738788881,
            16.300673897829693,
            16.334668262929682,
            18.326012559183592,
            18.504466528858952,
            18.686338414544984,
            18.81936420748042,
            19.56753022242467,
            19.587281193809417,
            20.63089596763665,
            20.686336515565422,
            25.793111037343007,
            26.04612556764861,
            30.256457956110324,
            30.408747466968396,
            34.03309336730434,
            34.42218883985513
        ]
    },
    "born_effective_charge": {
        "avg_abs_trace": 1.4084786666666667,
        "tensors": [
            [
                [
                    1.08715,
                    0.02404,
                    -0.02561
                ],
                [
                    0.00056,
                    1.16077,
                    0.05669
                ],
                [
                    -0.02287,
                    0.06504,
                    1.12229
                ]
            ],
            [
                [
                    1.08714,
                    -0.02402,
                    -0.02561
                ],
                [
                    -0.00056,
                    1.16077,
                    -0.05669
                ],
                [
                    -0.02286,
                    -0.06504,
                    1.12228
                ]
            ],
            [
                [
                    1.08714,
                    0.02402,
                    -0.02561
                ],
                [
                    0.00037,
                    1.16084,
                    0.05687
                ],
                [
                    -0.02286,
                    0.06504,
                    1.12228
                ]
            ],
            [
                [
                    1.08715,
                    -0.02404,
                    -0.02561
                ],
                [
                    -0.00037,
                    1.16084,
                    -0.05687
                ],
                [
                    -0.02287,
                    -0.06504,
                    1.12229
                ]
            ],
            [
                [
                    1.13826,
                    0.00546,
                    0.04397
                ],
                [
                    -0.0062,
                    1.09773,
                    0.02273
                ],
                [
                    0.03964,
                    0.01157,
                    1.2055
                ]
            ],
            [
                [
                    1.13827,
                    -0.00543,
                    0.04398
                ],
                [
                    0.0062,
                    1.09773,
                    -0.02273
                ],
                [
                    0.03966,
                    -0.01156,
                    1.20549
                ]
            ],
            [
                [
                    1.13827,
                    0.00543,
                    0.04398
                ],
                [
                    -0.00617,
                    1.09785,
                    0.02279
                ],
                [
                    0.03966,
                    0.01156,
                    1.20549
                ]
            ],
            [
                [
                    1.13826,
                    -0.00546,
                    0.04397
                ],
                [
                    0.00617,
                    1.09785,
                    -0.02279
                ],
                [
                    0.03964,
                    -0.01157,
                    1.2055
                ]
            ],
            [
                [
                    1.81772,
                    0.3367,
                    0.01484
                ],
                [
                    0.37261,
                    1.1504,
                    -0.44349
                ],
                [
                    -0.01119,
                    -0.44687,
                    0.78367
                ]
            ],
            [
                [
                    1.81772,
                    -0.3367,
                    0.01484
                ],
                [
                    -0.37251,
                    1.15038,
                    0.44349
                ],
                [
                    -0.01119,
                    0.44687,
                    0.78367
                ]
            ],
            [
                [
                    1.81772,
                    0.3367,
                    0.01486
                ],
                [
                    0.37251,
                    1.15038,
                    -0.44349
                ],
                [
                    -0.01122,
                    -0.44686,
                    0.78372
                ]
            ],
            [
                [
                    1.81772,
                    -0.3367,
                    0.01486
                ],
                [
                    -0.37261,
                    1.1504,
                    0.44349
                ],
                [
                    -0.01122,
                    0.44686,
                    0.78372
                ]
            ],
            [
                [
                    -2.0721,
                    -0.27117,
                    0.07658
                ],
                [
                    -0.29131,
                    -1.74336,
                    0.07814
                ],
                [
                    0.08171,
                    0.0703,
                    -1.61604
                ]
            ],
            [
                [
                    -1.9711,
                    0.04801,
                    -0.10979
                ],
                [
                    0.04769,
                    -1.66557,
                    -0.39479
                ],
                [
                    -0.08737,
                    -0.39643,
                    -1.49544
                ]
            ],
            [
                [
                    -1.97108,
                    0.04796,
                    -0.10984
                ],
                [
                    0.04765,
                    -1.66566,
                    -0.39466
                ],
                [
                    -0.08731,
                    -0.39645,
                    -1.49544
                ]
            ],
            [
                [
                    -1.9711,
                    -0.04801,
                    -0.10979
                ],
                [
                    -0.04765,
                    -1.66566,
                    0.39466
                ],
                [
                    -0.08737,
                    0.39643,
                    -1.49544
                ]
            ],
            [
                [
                    -2.07198,
                    0.27111,
                    0.07661
                ],
                [
                    0.29131,
                    -1.74336,
                    -0.07814
                ],
                [
                    0.08182,
                    -0.07039,
                    -1.61603
                ]
            ],
            [
                [
                    -2.07198,
                    -0.27111,
                    0.07661
                ],
                [
                    -0.29201,
                    -1.74338,
                    0.07859
                ],
                [
                    0.08182,
                    0.07039,
                    -1.61603
                ]
            ],
            [
                [
                    -2.0721,
                    0.27117,
                    0.07658
                ],
                [
                    0.29201,
                    -1.74338,
                    -0.07859
                ],
                [
                    0.08171,
                    -0.0703,
                    -1.61604
                ]
            ],
            [
                [
                    -1.97108,
                    -0.04796,
                    -0.10984
                ],
                [
                    -0.04769,
                    -1.66557,
                    0.39479
                ],
                [
                    -0.08731,
                    0.39645,
                    -1.49544
                ]
            ]
        ]
    },
    "band_gap": 2.9363,
    "is_direct": false,
    "formula": "K2BeO2"
}