{
    "mp_id": "mp-27716",
    "nelements": 3,
    "nsites": 6,
    "elements": [
        "K",
        "O",
        "Tl"
    ],
    "structure": {
        "@module": "pymatgen.core.structure",
        "@class": "Structure",
        "charge": null,
        "lattice": {
            "matrix": [
                [
                    6.44507751,
                    -1.80998694,
                    -0.0055792
                ],
                [
                    6.44507751,
                    1.80998694,
                    -0.0055792
                ],
                [
                    -1.84378674,
                    0.0,
                    6.00119424
                ]
            ],
            "a": 6.694408708792062,
            "b": 6.694408708792062,
            "c": 6.27804761441079,
            "alpha": 106.47197127044355,
            "beta": 106.47197127044355,
            "gamma": 31.372919875482367,
            "volume": 139.9766981263768
        },
        "sites": [
            {
                "species": [
                    {
                        "element": "K",
                        "occu": 1
                    }
                ],
                "abc": [
                    0.127849,
                    0.127849,
                    0.34502575
                ],
                "xyz": [
                    1.0118395263434246,
                    0.0,
                    2.06913995327008
                ],
                "label": "K",
                "properties": {}
            },
            {
                "species": [
                    {
                        "element": "K",
                        "occu": 1
                    }
                ],
                "abc": [
                    0.872151,
                    0.872151,
                    0.65497425
                ],
                "xyz": [
                    10.034528753656575,
                    0.0,
                    3.9208958867299204
                ],
                "label": "K",
                "properties": {}
            },
            {
                "species": [
                    {
                        "element": "Tl",
                        "occu": 1
                    }
                ],
                "abc": [
                    0.63734517,
                    0.63734517,
                    0.84818064
                ],
                "xyz": [
                    6.65161382539154,
                    0.0,
                    5.082985018902586
                ],
                "label": "Tl",
                "properties": {}
            },
            {
                "species": [
                    {
                        "element": "Tl",
                        "occu": 1
                    }
                ],
                "abc": [
                    0.36265483,
                    0.36265483,
                    0.15181936
                ],
                "xyz": [
                    4.39475445460846,
                    0.0,
                    0.9070508210974143
                ],
                "label": "Tl",
                "properties": {}
            },
            {
                "species": [
                    {
                        "element": "O",
                        "occu": 1
                    }
                ],
                "abc": [
                    0.75083555,
                    0.75083555,
                    0.21622093
                ],
                "xyz": [
                    9.279721350382491,
                    0.0,
                    1.2892056762823234
                ],
                "label": "O",
                "properties": {}
            },
            {
                "species": [
                    {
                        "element": "O",
                        "occu": 1
                    }
                ],
                "abc": [
                    0.24916445,
                    0.24916445,
                    0.78377907
                ],
                "xyz": [
                    1.7666469296175071,
                    0.0,
                    4.700830163717677
                ],
                "label": "O",
                "properties": {}
            }
        ]
    },
    "spacegroup": {
        "source": "spglib",
        "symbol": "C2/m",
        "number": 12,
        "point_group": "2/m",
        "crystal_system": "monoclinic",
        "hall": "-C 2y"
    },
    "dielectric": {
        "epsilon_ionic": [
            [
                2.71397374,
                6e-08,
                0.04562851
            ],
            [
                6e-08,
                7.47989899,
                -1.7e-07
            ],
            [
                0.04562851,
                -1.7e-07,
                4.71017612
            ]
        ],
        "epsilon_ionic_avg": 4.968016283333335,
        "epsilon_ionic_eig": [
            2.7129313235027976,
            4.711218536497194,
            7.479898990000013
        ],
        "epsilon_electronic": [
            [
                5.12087454,
                0.0,
                0.3977913
            ],
            [
                0.0,
                5.61650203,
                0.0
            ],
            [
                0.39779897,
                0.0,
                4.72488539
            ]
        ],
        "epsilon_electronic_avg": 5.1540873199999995,
        "epsilon_electronic_eig": [
            5.367225349970286,
            4.478534580029714,
            5.61650203
        ]
    },
    "phonon": {
        "lowest_freq": -0.064760551709775,
        "frequency": [
            -0.064760551709775,
            -0.02281904584264787,
            -0.0047444347202187185,
            1.5187651843441083,
            1.8330347125267314,
            2.781887914553664,
            2.78461531131029,
            2.7947516864643327,
            3.287223738571691,
            3.6890238455964384,
            4.251026935184553,
            4.781049862719218,
            6.762195161934591,
            7.208709024853841,
            7.920149516671623,
            8.316163865869148,
            9.8414886744916,
            10.695846215939017
        ]
    },
    "born_effective_charge": {
        "avg_abs_trace": 1.5923305555555556,
        "tensors": [
            [
                [
                    1.12735,
                    0.0,
                    -0.17737
                ],
                [
                    0.00013,
                    1.05323,
                    -0.00012
                ],
                [
                    -0.22721,
                    0.0,
                    1.44145
                ]
            ],
            [
                [
                    1.12727,
                    0.0,
                    -0.17724
                ],
                [
                    -0.00013,
                    1.05323,
                    0.00012
                ],
                [
                    -0.22719,
                    0.0,
                    1.44154
                ]
            ],
            [
                [
                    1.10285,
                    0.0,
                    0.62214
                ],
                [
                    1e-05,
                    1.76152,
                    0.00027
                ],
                [
                    0.53726,
                    0.0,
                    0.67905
                ]
            ],
            [
                [
                    1.10252,
                    0.0,
                    0.62164
                ],
                [
                    -1e-05,
                    1.76152,
                    -0.00027
                ],
                [
                    0.53855,
                    0.0,
                    0.67945
                ]
            ],
            [
                [
                    -2.23001,
                    0.0,
                    -0.44407
                ],
                [
                    -0.00033,
                    -2.81474,
                    8e-05
                ],
                [
                    -0.31005,
                    0.0,
                    -2.121
                ]
            ],
            [
                [
                    -2.22999,
                    0.0,
                    -0.44511
                ],
                [
                    0.00033,
                    -2.81474,
                    -8e-05
                ],
                [
                    -0.31136,
                    0.0,
                    -2.12049
                ]
            ]
        ]
    },
    "band_gap": 1.0755000000000001,
    "is_direct": false,
    "formula": "KTlO"
}