{
    "mp_id": "mp-27597",
    "nelements": 3,
    "nsites": 22,
    "elements": [
        "K",
        "Mo",
        "O"
    ],
    "structure": {
        "@module": "pymatgen.core.structure",
        "@class": "Structure",
        "charge": null,
        "lattice": {
            "matrix": [
                [
                    7.02929686,
                    0.00112523,
                    0.00067144
                ],
                [
                    0.72687058,
                    7.23666652,
                    0.00096231
                ],
                [
                    3.12812559,
                    0.65894396,
                    6.90985116
                ]
            ],
            "a": 7.0292969821298685,
            "b": 7.273079408874826,
            "c": 7.613502472751071,
            "alpha": 82.68651816252974,
            "beta": 65.73446490654398,
            "gamma": 84.25511985816797,
            "volume": 351.4700050577566
        },
        "sites": [
            {
                "species": [
                    {
                        "element": "K",
                        "occu": 1
                    }
                ],
                "abc": [
                    0.69356423,
                    0.84114869,
                    0.85384451
                ],
                "xyz": [
                    8.15760796192587,
                    6.650528665187041,
                    5.901213610445596
                ],
                "label": "K",
                "properties": {}
            },
            {
                "species": [
                    {
                        "element": "K",
                        "occu": 1
                    }
                ],
                "abc": [
                    0.30643577,
                    0.15885131,
                    0.14615549
                ],
                "xyz": [
                    2.726685068074131,
                    1.2462070448129587,
                    1.0102712995544032
                ],
                "label": "K",
                "properties": {}
            },
            {
                "species": [
                    {
                        "element": "K",
                        "occu": 1
                    }
                ],
                "abc": [
                    0.76584219,
                    0.38017567,
                    0.56193604
                ],
                "xyz": [
                    7.417477117844575,
                    3.1223506508793406,
                    3.883774461768857
                ],
                "label": "K",
                "properties": {}
            },
            {
                "species": [
                    {
                        "element": "K",
                        "occu": 1
                    }
                ],
                "abc": [
                    0.23415781,
                    0.61982433,
                    0.43806396
                ],
                "xyz": [
                    3.4668159121554245,
                    4.77438505912066,
                    3.027710448231142
                ],
                "label": "K",
                "properties": {}
            },
            {
                "species": [
                    {
                        "element": "Mo",
                        "occu": 1
                    }
                ],
                "abc": [
                    0.26398326,
                    0.0799074,
                    0.67102223
                ],
                "xyz": [
                    4.012740847916721,
                    1.0207262936481287,
                    4.636917878961476
                ],
                "label": "Mo",
                "properties": {}
            },
            {
                "species": [
                    {
                        "element": "Mo",
                        "occu": 1
                    }
                ],
                "abc": [
                    0.73601674,
                    0.9200926,
                    0.32897777
                ],
                "xyz": [
                    6.871552182083279,
                    6.876009416351872,
                    2.274567031038525
                ],
                "label": "Mo",
                "properties": {}
            },
            {
                "species": [
                    {
                        "element": "Mo",
                        "occu": 1
                    }
                ],
                "abc": [
                    0.16588947,
                    0.65189012,
                    0.94725671
                ],
                "xyz": [
                    4.603064035048943,
                    5.341887157555082,
                    6.546141581618397
                ],
                "label": "Mo",
                "properties": {}
            },
            {
                "species": [
                    {
                        "element": "Mo",
                        "occu": 1
                    }
                ],
                "abc": [
                    0.83411053,
                    0.34810988,
                    0.05274329
                ],
                "xyz": [
                    6.281228994951057,
                    2.5548485524449176,
                    0.3653433283816024
                ],
                "label": "Mo",
                "properties": {}
            },
            {
                "species": [
                    {
                        "element": "O",
                        "occu": 1
                    }
                ],
                "abc": [
                    0.53643106,
                    0.08062086,
                    0.62530652
                ],
                "xyz": [
                    5.785371423738616,
                    0.9960718411998701,
                    4.321212746108276
                ],
                "label": "O",
                "properties": {}
            },
            {
                "species": [
                    {
                        "element": "O",
                        "occu": 1
                    }
                ],
                "abc": [
                    0.46356894,
                    0.91937914,
                    0.37469348
                ],
                "xyz": [
                    5.098921606261383,
                    6.900663868800129,
                    2.590272163891724
                ],
                "label": "O",
                "properties": {}
            },
            {
                "species": [
                    {
                        "element": "O",
                        "occu": 1
                    }
                ],
                "abc": [
                    0.9480783,
                    0.53562639,
                    0.85740528
                ],
                "xyz": [
                    9.735726279355859,
                    4.44219840041508,
                    5.925694884923238
                ],
                "label": "O",
                "properties": {}
            },
            {
                "species": [
                    {
                        "element": "O",
                        "occu": 1
                    }
                ],
                "abc": [
                    0.0519217,
                    0.46437361,
                    0.14259472
                ],
                "xyz": [
                    1.1485667506441406,
                    3.4545373095849197,
                    0.9857900250767624
                ],
                "label": "O",
                "properties": {}
            },
            {
                "species": [
                    {
                        "element": "O",
                        "occu": 1
                    }
                ],
                "abc": [
                    0.13737923,
                    0.18597859,
                    0.89061
                ],
                "xyz": [
                    3.8868016873589997,
                    1.9328816991363795,
                    6.154253752574734
                ],
                "label": "O",
                "properties": {}
            },
            {
                "species": [
                    {
                        "element": "O",
                        "occu": 1
                    }
                ],
                "abc": [
                    0.86262077,
                    0.81402141,
                    0.10939
                ],
                "xyz": [
                    6.997491342641,
                    5.96385401086362,
                    0.7572311574252658
                ],
                "label": "O",
                "properties": {}
            },
            {
                "species": [
                    {
                        "element": "O",
                        "occu": 1
                    }
                ],
                "abc": [
                    0.81681742,
                    0.7698696,
                    0.48934361
                ],
                "xyz": [
                    7.831975957019649,
                    5.894658682725394,
                    3.3825808083003484
                ],
                "label": "O",
                "properties": {}
            },
            {
                "species": [
                    {
                        "element": "O",
                        "occu": 1
                    }
                ],
                "abc": [
                    0.18318258,
                    0.2301304,
                    0.51065639
                ],
                "xyz": [
                    3.0523170729803506,
                    2.002077027274606,
                    3.528904101699651
                ],
                "label": "O",
                "properties": {}
            },
            {
                "species": [
                    {
                        "element": "O",
                        "occu": 1
                    }
                ],
                "abc": [
                    0.8579228,
                    0.14935947,
                    0.26111535
                ],
                "xyz": [
                    6.955960657026607,
                    1.2538904192119744,
                    1.8049879778877138
                ],
                "label": "O",
                "properties": {}
            },
            {
                "species": [
                    {
                        "element": "O",
                        "occu": 1
                    }
                ],
                "abc": [
                    0.1420772,
                    0.85064053,
                    0.73888465
                ],
                "xyz": [
                    3.9283323729733928,
                    6.642845290788025,
                    5.106496932112286
                ],
                "label": "O",
                "properties": {}
            },
            {
                "species": [
                    {
                        "element": "O",
                        "occu": 1
                    }
                ],
                "abc": [
                    0.2754765,
                    0.79029476,
                    0.05302821
                ],
                "xyz": [
                    2.6767270077188448,
                    5.754352223734641,
                    0.3673625128728792
                ],
                "label": "O",
                "properties": {}
            },
            {
                "species": [
                    {
                        "element": "O",
                        "occu": 1
                    }
                ],
                "abc": [
                    0.7245235,
                    0.20970524,
                    0.94697179
                ],
                "xyz": [
                    8.207566022281156,
                    2.1423834862653583,
                    6.54412239712712
                ],
                "label": "O",
                "properties": {}
            },
            {
                "species": [
                    {
                        "element": "O",
                        "occu": 1
                    }
                ],
                "abc": [
                    0.61304944,
                    0.46029704,
                    0.21740397
                ],
                "xyz": [
                    5.323949801978433,
                    3.4749630331559933,
                    1.503083648653661
                ],
                "label": "O",
                "properties": {}
            },
            {
                "species": [
                    {
                        "element": "O",
                        "occu": 1
                    }
                ],
                "abc": [
                    0.38695056,
                    0.53970296,
                    0.78259603
                ],
                "xyz": [
                    5.560343228021566,
                    4.421772676844006,
                    5.408401261346339
                ],
                "label": "O",
                "properties": {}
            }
        ]
    },
    "spacegroup": {
        "source": "spglib",
        "symbol": "P-1",
        "number": 2,
        "point_group": "-1",
        "crystal_system": "triclinic",
        "hall": "-P 1"
    },
    "dielectric": {
        "epsilon_ionic": [
            [
                5.93504567,
                2.33594633,
                -2.37363736
            ],
            [
                2.33594633,
                9.45031546,
                -0.13749989
            ],
            [
                -2.37363736,
                -0.13749989,
                10.59902688
            ]
        ],
        "epsilon_ionic_avg": 8.66146267,
        "epsilon_ionic_eig": [
            4.093200539898213,
            12.113000412782768,
            9.77818705731902
        ],
        "epsilon_electronic": [
            [
                3.17233044,
                0.15354889,
                -0.40552068
            ],
            [
                0.15355007,
                3.77091764,
                -0.08621864
            ],
            [
                -0.40552122,
                -0.08621708,
                3.54501263
            ]
        ],
        "epsilon_electronic_avg": 3.4960869033333335,
        "epsilon_electronic_eig": [
            2.904234760544714,
            3.947297996332654,
            3.6367279531226324
        ]
    },
    "phonon": {
        "lowest_freq": -0.11351865042498675,
        "frequency": [
            -0.11351865042498675,
            -0.07906361770264053,
            -0.0359049926212318,
            1.5011166329317074,
            2.1537481696817786,
            2.2867480120703467,
            2.330355424147953,
            2.35991315095373,
            2.466671454930479,
            2.542033990895496,
            3.02716244479135,
            3.1739008703772167,
            3.356472116556862,
            3.380676092291354,
            3.539727127403601,
            3.6845398719677305,
            3.8678349002868977,
            3.981048078527764,
            4.053723944670262,
            4.1850227605168815,
            4.384576296873681,
            4.480585426356116,
            4.7111478603632975,
            5.0877908971257755,
            5.241412928185942,
            5.500279952459357,
            5.6971158335272625,
            5.784060700218555,
            6.058399626571465,
            6.253481078374714,
            6.451128716206938,
            6.907335420823508,
            6.965993216258741,
            7.188668059957405,
            7.518992400098743,
            8.329629326381697,
            8.694094058781381,
            9.279395305529846,
            9.523490724180075,
            9.90146407550304,
            9.988905292159469,
            10.330296268854402,
            10.407387665787562,
            10.897885892752535,
            10.960547310494295,
            11.533286496056292,
            11.593514437301508,
            11.947742487654322,
            12.139862536132613,
            12.973582466733138,
            13.688954148251614,
            14.26362816204044,
            19.11864925614311,
            20.73131989597088,
            21.008045711492155,
            22.560735687416546,
            23.442230492670287,
            23.660506148604856,
            24.737232057735948,
            25.058179905497138,
            25.235966803206075,
            25.242741382195604,
            26.38437686280141,
            26.51375881323964,
            27.061515211591626,
            27.4005857275595
        ]
    },
    "born_effective_charge": {
        "avg_abs_trace": 2.2028703030303034,
        "tensors": [
            [
                [
                    1.55348,
                    0.02509,
                    0.2702
                ],
                [
                    0.0793,
                    1.17323,
                    -0.09231
                ],
                [
                    0.23784,
                    0.01026,
                    1.21973
                ]
            ],
            [
                [
                    1.55348,
                    0.02503,
                    0.27025
                ],
                [
                    0.0793,
                    1.17317,
                    -0.09233
                ],
                [
                    0.23778,
                    0.01026,
                    1.21976
                ]
            ],
            [
                [
                    1.32621,
                    -0.0223,
                    0.01648
                ],
                [
                    -0.02024,
                    1.33049,
                    0.13606
                ],
                [
                    0.03906,
                    -0.08259,
                    1.49002
                ]
            ],
            [
                [
                    1.32621,
                    -0.02226,
                    0.01649
                ],
                [
                    -0.02022,
                    1.33048,
                    0.13608
                ],
                [
                    0.03902,
                    -0.08253,
                    1.48997
                ]
            ],
            [
                [
                    3.48711,
                    -0.44496,
                    -1.35762
                ],
                [
                    0.09008,
                    4.4638,
                    0.40266
                ],
                [
                    -1.30158,
                    0.00434,
                    5.14453
                ]
            ],
            [
                [
                    3.48714,
                    -0.44487,
                    -1.35756
                ],
                [
                    0.09006,
                    4.4638,
                    0.40269
                ],
                [
                    -1.30177,
                    0.00472,
                    5.14466
                ]
            ],
            [
                [
                    3.81287,
                    1.25447,
                    -1.17652
                ],
                [
                    0.64269,
                    6.62812,
                    -0.73698
                ],
                [
                    -1.16142,
                    -0.23485,
                    4.7176
                ]
            ],
            [
                [
                    3.81288,
                    1.25463,
                    -1.17663
                ],
                [
                    0.64286,
                    6.62822,
                    -0.73711
                ],
                [
                    -1.16142,
                    -0.23479,
                    4.71775
                ]
            ],
            [
                [
                    -2.58575,
                    0.21968,
                    0.70857
                ],
                [
                    0.01346,
                    -0.84362,
                    -0.28944
                ],
                [
                    1.22997,
                    -0.57328,
                    -1.6078
                ]
            ],
            [
                [
                    -2.5863,
                    0.21983,
                    0.70875
                ],
                [
                    0.01343,
                    -0.84377,
                    -0.28936
                ],
                [
                    1.23013,
                    -0.57337,
                    -1.60782
                ]
            ],
            [
                [
                    -1.66746,
                    -0.92435,
                    0.38814
                ],
                [
                    -1.14367,
                    -2.67724,
                    1.1066
                ],
                [
                    0.3458,
                    0.76896,
                    -1.59407
                ]
            ],
            [
                [
                    -1.66738,
                    -0.92462,
                    0.38827
                ],
                [
                    -1.14365,
                    -2.67721,
                    1.10667
                ],
                [
                    0.34598,
                    0.7688,
                    -1.59368
                ]
            ],
            [
                [
                    -0.89872,
                    0.53177,
                    0.82277
                ],
                [
                    0.50084,
                    -1.90434,
                    -1.61942
                ],
                [
                    0.64239,
                    -1.39167,
                    -2.78079
                ]
            ],
            [
                [
                    -0.89883,
                    0.53194,
                    0.82269
                ],
                [
                    0.50077,
                    -1.90458,
                    -1.61941
                ],
                [
                    0.64226,
                    -1.39183,
                    -2.78068
                ]
            ],
            [
                [
                    -1.15516,
                    0.66931,
                    -0.50113
                ],
                [
                    0.72991,
                    -1.29913,
                    0.63213
                ],
                [
                    -0.82736,
                    0.66032,
                    -1.80214
                ]
            ],
            [
                [
                    -1.15481,
                    0.66896,
                    -0.50076
                ],
                [
                    0.7296,
                    -1.29855,
                    0.63145
                ],
                [
                    -0.82774,
                    0.66078,
                    -1.8024
                ]
            ],
            [
                [
                    -0.91921,
                    -0.87735,
                    0.57626
                ],
                [
                    -0.44138,
                    -3.63239,
                    1.57407
                ],
                [
                    0.31268,
                    1.72011,
                    -2.0675
                ]
            ],
            [
                [
                    -0.91917,
                    -0.87721,
                    0.57612
                ],
                [
                    -0.44104,
                    -3.63229,
                    1.57423
                ],
                [
                    0.31272,
                    1.71995,
                    -2.06748
                ]
            ],
            [
                [
                    -1.72986,
                    -0.95221,
                    -0.54922
                ],
                [
                    -0.9041,
                    -1.90851,
                    -0.49998
                ],
                [
                    -0.29367,
                    -0.24904,
                    -0.99984
                ]
            ],
            [
                [
                    -1.72964,
                    -0.95231,
                    -0.54909
                ],
                [
                    -0.90376,
                    -1.90807,
                    -0.49969
                ],
                [
                    -0.29382,
                    -0.24921,
                    -0.99999
                ]
            ],
            [
                [
                    -1.22356,
                    0.52098,
                    0.80191
                ],
                [
                    0.45292,
                    -1.33082,
                    -0.61339
                ],
                [
                    0.77672,
                    -0.63272,
                    -1.71995
                ]
            ],
            [
                [
                    -1.22354,
                    0.52077,
                    0.80163
                ],
                [
                    0.45283,
                    -1.3308,
                    -0.61323
                ],
                [
                    0.77645,
                    -0.63261,
                    -1.71988
                ]
            ]
        ]
    },
    "band_gap": 3.1906,
    "is_direct": false,
    "formula": "K2Mo2O7"
}