{
    "mp_id": "mp-2908",
    "nelements": 3,
    "nsites": 14,
    "elements": [
        "Al",
        "O",
        "Zn"
    ],
    "structure": {
        "@module": "pymatgen.core.structure",
        "@class": "Structure",
        "charge": null,
        "lattice": {
            "matrix": [
                [
                    0.0,
                    4.02395924,
                    4.02395924
                ],
                [
                    4.02395924,
                    0.0,
                    4.02395924
                ],
                [
                    4.02395924,
                    4.02395924,
                    0.0
                ]
            ],
            "a": 5.690737731644532,
            "b": 5.690737731644532,
            "c": 5.690737731644532,
            "alpha": 60.00000000000001,
            "beta": 60.00000000000001,
            "gamma": 60.00000000000001,
            "volume": 130.3138916317256
        },
        "sites": [
            {
                "species": [
                    {
                        "element": "Al",
                        "occu": 1
                    }
                ],
                "abc": [
                    0.625,
                    0.625,
                    0.125
                ],
                "xyz": [
                    3.01796943,
                    3.01796943,
                    5.02994905
                ],
                "label": "Al",
                "properties": {}
            },
            {
                "species": [
                    {
                        "element": "Al",
                        "occu": 1
                    }
                ],
                "abc": [
                    0.625,
                    0.125,
                    0.625
                ],
                "xyz": [
                    3.01796943,
                    5.02994905,
                    3.01796943
                ],
                "label": "Al",
                "properties": {}
            },
            {
                "species": [
                    {
                        "element": "Al",
                        "occu": 1
                    }
                ],
                "abc": [
                    0.125,
                    0.625,
                    0.625
                ],
                "xyz": [
                    5.02994905,
                    3.01796943,
                    3.01796943
                ],
                "label": "Al",
                "properties": {}
            },
            {
                "species": [
                    {
                        "element": "Al",
                        "occu": 1
                    }
                ],
                "abc": [
                    0.625,
                    0.625,
                    0.625
                ],
                "xyz": [
                    5.02994905,
                    5.02994905,
                    5.02994905
                ],
                "label": "Al",
                "properties": {}
            },
            {
                "species": [
                    {
                        "element": "Zn",
                        "occu": 1
                    }
                ],
                "abc": [
                    0.0,
                    0.0,
                    0.0
                ],
                "xyz": [
                    0.0,
                    0.0,
                    0.0
                ],
                "label": "Zn",
                "properties": {}
            },
            {
                "species": [
                    {
                        "element": "Zn",
                        "occu": 1
                    }
                ],
                "abc": [
                    0.25,
                    0.25,
                    0.25
                ],
                "xyz": [
                    2.01197962,
                    2.01197962,
                    2.01197962
                ],
                "label": "Zn",
                "properties": {}
            },
            {
                "species": [
                    {
                        "element": "O",
                        "occu": 1
                    }
                ],
                "abc": [
                    0.86218021,
                    0.86218021,
                    0.86218021
                ],
                "xyz": [
                    6.9387560451492805,
                    6.9387560451492805,
                    6.9387560451492805
                ],
                "label": "O",
                "properties": {}
            },
            {
                "species": [
                    {
                        "element": "O",
                        "occu": 1
                    }
                ],
                "abc": [
                    0.83654064,
                    0.38781979,
                    0.38781979
                ],
                "xyz": [
                    3.121142054850719,
                    4.926776465388873,
                    4.926776465388873
                ],
                "label": "O",
                "properties": {}
            },
            {
                "species": [
                    {
                        "element": "O",
                        "occu": 1
                    }
                ],
                "abc": [
                    0.38781979,
                    0.38781979,
                    0.83654064
                ],
                "xyz": [
                    4.926776465388873,
                    4.926776465388873,
                    3.121142054850719
                ],
                "label": "O",
                "properties": {}
            },
            {
                "species": [
                    {
                        "element": "O",
                        "occu": 1
                    }
                ],
                "abc": [
                    0.38781979,
                    0.83654064,
                    0.38781979
                ],
                "xyz": [
                    4.926776465388873,
                    3.121142054850719,
                    4.926776465388873
                ],
                "label": "O",
                "properties": {}
            },
            {
                "species": [
                    {
                        "element": "O",
                        "occu": 1
                    }
                ],
                "abc": [
                    0.86218021,
                    0.86218021,
                    0.41345936
                ],
                "xyz": [
                    5.133121634611126,
                    5.133121634611126,
                    6.9387560451492805
                ],
                "label": "O",
                "properties": {}
            },
            {
                "species": [
                    {
                        "element": "O",
                        "occu": 1
                    }
                ],
                "abc": [
                    0.86218021,
                    0.41345936,
                    0.86218021
                ],
                "xyz": [
                    5.133121634611126,
                    6.9387560451492805,
                    5.133121634611126
                ],
                "label": "O",
                "properties": {}
            },
            {
                "species": [
                    {
                        "element": "O",
                        "occu": 1
                    }
                ],
                "abc": [
                    0.38781979,
                    0.38781979,
                    0.38781979
                ],
                "xyz": [
                    3.121142054850719,
                    3.121142054850719,
                    3.121142054850719
                ],
                "label": "O",
                "properties": {}
            },
            {
                "species": [
                    {
                        "element": "O",
                        "occu": 1
                    }
                ],
                "abc": [
                    0.41345936,
                    0.86218021,
                    0.86218021
                ],
                "xyz": [
                    6.9387560451492805,
                    5.133121634611126,
                    5.133121634611126
                ],
                "label": "O",
                "properties": {}
            }
        ]
    },
    "spacegroup": {
        "source": "spglib",
        "symbol": "Fd-3m",
        "number": 227,
        "point_group": "m-3m",
        "crystal_system": "cubic",
        "hall": "F 4d 2 3 -1d"
    },
    "dielectric": {
        "epsilon_ionic": [
            [
                5.3036916,
                0.0,
                0.0
            ],
            [
                0.0,
                5.30372293,
                0.0
            ],
            [
                0.0,
                0.0,
                5.30302561
            ]
        ],
        "epsilon_ionic_avg": 5.3034800466666665,
        "epsilon_ionic_eig": [
            5.3036916,
            5.30372293,
            5.30302561
        ],
        "epsilon_electronic": [
            [
                3.36572309,
                0.0,
                0.0
            ],
            [
                -0.0,
                3.36572309,
                0.0
            ],
            [
                0.0,
                0.0,
                3.36572309
            ]
        ],
        "epsilon_electronic_avg": 3.36572309,
        "epsilon_electronic_eig": [
            3.36572309,
            3.36572309,
            3.36572309
        ]
    },
    "phonon": {
        "lowest_freq": -0.05133082001663584,
        "frequency": [
            -0.05133082001663584,
            -0.05133082001663584,
            -0.05133082001663584,
            5.7285721189049585,
            5.7285721189049585,
            5.7285721189049585,
            6.555270157227577,
            6.555270157227577,
            6.555270157227577,
            7.440817081844221,
            7.440817081844221,
            7.440817081844221,
            11.032860825878895,
            11.032860825878895,
            11.032860825878895,
            11.756284266079483,
            11.756284266079483,
            12.420516380763091,
            12.420516380763091,
            14.31869013231463,
            14.31869013231463,
            14.31869013231463,
            14.357300550236573,
            14.357300550236573,
            14.357300550236573,
            14.87069501303971,
            14.87069501303971,
            14.87069501303971,
            15.927634274256404,
            15.927634274256404,
            15.927634274256404,
            17.83365655432941,
            17.83365655432941,
            19.13531127497458,
            19.13531127497458,
            19.13531127497458,
            19.381445973303727,
            19.381445973303727,
            19.381445973303727,
            19.92498973281381,
            21.966967349366723,
            22.224179286631397
        ]
    },
    "born_effective_charge": {
        "avg_abs_trace": 2.2217909523809523,
        "tensors": [
            [
                [
                    2.85488,
                    0.1556,
                    -0.1556
                ],
                [
                    0.15561,
                    2.85488,
                    -0.15561
                ],
                [
                    -0.15561,
                    -0.15561,
                    2.85478
                ]
            ],
            [
                [
                    2.85488,
                    -0.1556,
                    0.1556
                ],
                [
                    -0.15561,
                    2.85488,
                    -0.15561
                ],
                [
                    0.15561,
                    -0.15561,
                    2.85478
                ]
            ],
            [
                [
                    2.85488,
                    -0.1556,
                    -0.1556
                ],
                [
                    -0.15561,
                    2.85488,
                    0.15561
                ],
                [
                    -0.15561,
                    0.15561,
                    2.85478
                ]
            ],
            [
                [
                    2.85488,
                    0.1556,
                    0.1556
                ],
                [
                    0.15561,
                    2.85488,
                    0.15561
                ],
                [
                    0.15561,
                    0.15561,
                    2.85478
                ]
            ],
            [
                [
                    2.06665,
                    0.0,
                    0.0
                ],
                [
                    -0.0,
                    2.06664,
                    -0.0
                ],
                [
                    -0.0,
                    0.0,
                    2.06644
                ]
            ],
            [
                [
                    2.06665,
                    0.0,
                    0.0
                ],
                [
                    -0.0,
                    2.06664,
                    -0.0
                ],
                [
                    -0.0,
                    0.0,
                    2.06644
                ]
            ],
            [
                [
                    -1.94407,
                    -0.11902,
                    -0.11902
                ],
                [
                    -0.11895,
                    -1.94409,
                    -0.11895
                ],
                [
                    -0.11901,
                    -0.11901,
                    -1.944
                ]
            ],
            [
                [
                    -1.94413,
                    0.11899,
                    0.11899
                ],
                [
                    0.11895,
                    -1.94409,
                    -0.11895
                ],
                [
                    0.11901,
                    -0.11901,
                    -1.944
                ]
            ],
            [
                [
                    -1.94407,
                    -0.11902,
                    0.11902
                ],
                [
                    -0.11895,
                    -1.94409,
                    0.11895
                ],
                [
                    0.1191,
                    0.1191,
                    -1.944
                ]
            ],
            [
                [
                    -1.94407,
                    0.11902,
                    -0.11902
                ],
                [
                    0.11898,
                    -1.94411,
                    0.11898
                ],
                [
                    -0.11901,
                    0.11901,
                    -1.944
                ]
            ],
            [
                [
                    -1.94413,
                    -0.11899,
                    0.11899
                ],
                [
                    -0.11898,
                    -1.94411,
                    0.11898
                ],
                [
                    0.11901,
                    0.11901,
                    -1.944
                ]
            ],
            [
                [
                    -1.94413,
                    0.11899,
                    -0.11899
                ],
                [
                    0.11895,
                    -1.94409,
                    0.11895
                ],
                [
                    -0.1191,
                    0.1191,
                    -1.944
                ]
            ],
            [
                [
                    -1.94413,
                    -0.11899,
                    -0.11899
                ],
                [
                    -0.11898,
                    -1.94411,
                    -0.11898
                ],
                [
                    -0.1191,
                    -0.1191,
                    -1.944
                ]
            ],
            [
                [
                    -1.94407,
                    0.11902,
                    0.11902
                ],
                [
                    0.11898,
                    -1.94411,
                    -0.11898
                ],
                [
                    0.1191,
                    -0.1191,
                    -1.944
                ]
            ]
        ]
    },
    "band_gap": 4.4462,
    "is_direct": false,
    "formula": "Al2ZnO4"
}