{
    "mp_id": "mp-20459",
    "nelements": 3,
    "nsites": 5,
    "elements": [
        "O",
        "Pb",
        "Ti"
    ],
    "structure": {
        "@module": "pymatgen.core.structure",
        "@class": "Structure",
        "charge": null,
        "lattice": {
            "matrix": [
                [
                    3.95169375,
                    0.0,
                    0.0
                ],
                [
                    0.0,
                    3.95169375,
                    0.0
                ],
                [
                    0.0,
                    0.0,
                    3.97851151
                ]
            ],
            "a": 3.95169375,
            "b": 3.95169375,
            "c": 3.97851151,
            "alpha": 90.0,
            "beta": 90.0,
            "gamma": 90.0,
            "volume": 62.1279722188588
        },
        "sites": [
            {
                "species": [
                    {
                        "element": "Ti",
                        "occu": 1
                    }
                ],
                "abc": [
                    0.5,
                    0.5,
                    0.54962421
                ],
                "xyz": [
                    1.975846875,
                    1.975846875,
                    2.186686245659657
                ],
                "label": "Ti",
                "properties": {}
            },
            {
                "species": [
                    {
                        "element": "Pb",
                        "occu": 1
                    }
                ],
                "abc": [
                    0.0,
                    0.0,
                    0.09259684
                ],
                "xyz": [
                    0.0,
                    0.0,
                    0.36839759372962844
                ],
                "label": "Pb",
                "properties": {}
            },
            {
                "species": [
                    {
                        "element": "O",
                        "occu": 1
                    }
                ],
                "abc": [
                    0.0,
                    0.5,
                    0.51014948
                ],
                "xyz": [
                    0.0,
                    1.975846875,
                    2.029635578000515
                ],
                "label": "O",
                "properties": {}
            },
            {
                "species": [
                    {
                        "element": "O",
                        "occu": 1
                    }
                ],
                "abc": [
                    0.5,
                    0.0,
                    0.51014948
                ],
                "xyz": [
                    1.975846875,
                    0.0,
                    2.029635578000515
                ],
                "label": "O",
                "properties": {}
            },
            {
                "species": [
                    {
                        "element": "O",
                        "occu": 1
                    }
                ],
                "abc": [
                    0.5,
                    0.5,
                    0.02768099
                ],
                "xyz": [
                    1.975846875,
                    1.975846875,
                    0.1101291373231949
                ],
                "label": "O",
                "properties": {}
            }
        ]
    },
    "spacegroup": {
        "source": "spglib",
        "symbol": "P4mm",
        "number": 99,
        "point_group": "4mm",
        "crystal_system": "tetragonal",
        "hall": "P 4 -2"
    },
    "dielectric": {
        "epsilon_ionic": [
            [
                958.00504592,
                0.0,
                2.188e-05
            ],
            [
                0.0,
                958.00771447,
                -2.491e-05
            ],
            [
                2.188e-05,
                -2.491e-05,
                68.08583277
            ]
        ],
        "epsilon_ionic_avg": 661.36619772,
        "epsilon_ionic_eig": [
            68.08583276999877,
            958.0050459200004,
            958.0077144700008
        ],
        "epsilon_electronic": [
            [
                7.88098441,
                -0.0,
                0.0
            ],
            [
                0.0,
                7.88098441,
                0.0
            ],
            [
                0.0,
                0.0,
                7.84475333
            ]
        ],
        "epsilon_electronic_avg": 7.868907383333333,
        "epsilon_electronic_eig": [
            7.88098441,
            7.88098441,
            7.84475333
        ]
    },
    "phonon": {
        "lowest_freq": -0.14596671021186203,
        "frequency": [
            -0.14596671021186203,
            -0.14596671021186203,
            -0.07486009478554743,
            0.9297993231105207,
            0.9297993231105207,
            3.135507361879328,
            7.080653204404033,
            7.080653204404033,
            7.474697047667126,
            7.474697047667126,
            7.531533975349552,
            7.547910360002777,
            16.42883259842177,
            16.42883259842177,
            16.76493519719789
        ]
    },
    "born_effective_charge": {
        "avg_abs_trace": 4.169066666666666,
        "tensors": [
            [
                [
                    6.65293,
                    0.0,
                    0.0
                ],
                [
                    0.0,
                    6.65295,
                    -0.0
                ],
                [
                    -0.0,
                    -0.0,
                    6.78342
                ]
            ],
            [
                [
                    3.83544,
                    0.0,
                    -0.0
                ],
                [
                    0.0,
                    3.83545,
                    0.0
                ],
                [
                    -0.0,
                    -0.0,
                    3.50781
                ]
            ],
            [
                [
                    -5.59952,
                    0.0,
                    0.0
                ],
                [
                    0.0,
                    -2.54384,
                    1e-05
                ],
                [
                    0.0,
                    -0.0,
                    -2.31024
                ]
            ],
            [
                [
                    -2.54383,
                    0.0,
                    -1e-05
                ],
                [
                    0.0,
                    -5.59953,
                    -0.0
                ],
                [
                    -0.0,
                    0.0,
                    -2.31024
                ]
            ],
            [
                [
                    -2.34502,
                    0.0,
                    0.0
                ],
                [
                    0.0,
                    -2.34503,
                    -0.0
                ],
                [
                    -0.0,
                    -0.0,
                    -5.67075
                ]
            ]
        ]
    },
    "band_gap": 1.8362000000000003,
    "is_direct": false,
    "formula": "TiPbO3"
}