{
    "mp_id": "mp-20352",
    "nelements": 3,
    "nsites": 11,
    "elements": [
        "Ba",
        "In",
        "O"
    ],
    "structure": {
        "@module": "pymatgen.core.structure",
        "@class": "Structure",
        "charge": null,
        "lattice": {
            "matrix": [
                [
                    -2.11538033,
                    2.11538033,
                    10.82169585
                ],
                [
                    2.11538033,
                    -2.11538033,
                    10.82169585
                ],
                [
                    2.11538033,
                    2.11538033,
                    -10.82169585
                ]
            ],
            "a": 11.227589632285687,
            "b": 11.227589632285687,
            "c": 11.227589632285687,
            "alpha": 158.28008590226457,
            "beta": 158.28008590226457,
            "gamma": 30.906347533616017,
            "volume": 193.70116753559563
        },
        "sites": [
            {
                "species": [
                    {
                        "element": "Ba",
                        "occu": 1
                    }
                ],
                "abc": [
                    0.68233738,
                    0.68233738,
                    0.0
                ],
                "xyz": [
                    0.0,
                    0.0,
                    14.768095186891745
                ],
                "label": "Ba",
                "properties": {}
            },
            {
                "species": [
                    {
                        "element": "Ba",
                        "occu": 1
                    }
                ],
                "abc": [
                    0.31766262,
                    0.31766262,
                    0.0
                ],
                "xyz": [
                    0.0,
                    0.0,
                    6.875296513108253
                ],
                "label": "Ba",
                "properties": {}
            },
            {
                "species": [
                    {
                        "element": "Ba",
                        "occu": 1
                    }
                ],
                "abc": [
                    0.5,
                    0.5,
                    0.0
                ],
                "xyz": [
                    0.0,
                    0.0,
                    10.82169585
                ],
                "label": "Ba",
                "properties": {}
            },
            {
                "species": [
                    {
                        "element": "In",
                        "occu": 1
                    }
                ],
                "abc": [
                    0.89746092,
                    0.89746092,
                    0.0
                ],
                "xyz": [
                    0.0,
                    0.0,
                    19.424098227002364
                ],
                "label": "In",
                "properties": {}
            },
            {
                "species": [
                    {
                        "element": "In",
                        "occu": 1
                    }
                ],
                "abc": [
                    0.10253908,
                    0.10253908,
                    0.0
                ],
                "xyz": [
                    0.0,
                    0.0,
                    2.219293472997636
                ],
                "label": "In",
                "properties": {}
            },
            {
                "species": [
                    {
                        "element": "O",
                        "occu": 1
                    }
                ],
                "abc": [
                    0.80012196,
                    0.80012196,
                    0.0
                ],
                "xyz": [
                    0.0,
                    0.0,
                    17.31735298805173
                ],
                "label": "O",
                "properties": {}
            },
            {
                "species": [
                    {
                        "element": "O",
                        "occu": 1
                    }
                ],
                "abc": [
                    0.19987804,
                    0.19987804,
                    0.0
                ],
                "xyz": [
                    0.0,
                    0.0,
                    4.326038711948268
                ],
                "label": "O",
                "properties": {}
            },
            {
                "species": [
                    {
                        "element": "O",
                        "occu": 1
                    }
                ],
                "abc": [
                    0.41696819,
                    0.91696819,
                    0.5
                ],
                "xyz": [
                    2.11538033,
                    0.0,
                    9.024605862610024
                ],
                "label": "O",
                "properties": {}
            },
            {
                "species": [
                    {
                        "element": "O",
                        "occu": 1
                    }
                ],
                "abc": [
                    0.91696819,
                    0.41696819,
                    0.5
                ],
                "xyz": [
                    0.0,
                    2.11538033,
                    9.024605862610024
                ],
                "label": "O",
                "properties": {}
            },
            {
                "species": [
                    {
                        "element": "O",
                        "occu": 1
                    }
                ],
                "abc": [
                    0.58303181,
                    0.08303181,
                    0.5
                ],
                "xyz": [
                    0.0,
                    2.11538033,
                    1.7970899873899775
                ],
                "label": "O",
                "properties": {}
            },
            {
                "species": [
                    {
                        "element": "O",
                        "occu": 1
                    }
                ],
                "abc": [
                    0.08303181,
                    0.58303181,
                    0.5
                ],
                "xyz": [
                    2.11538033,
                    0.0,
                    1.7970899873899775
                ],
                "label": "O",
                "properties": {}
            }
        ]
    },
    "spacegroup": {
        "source": "spglib",
        "symbol": "I4/mmm",
        "number": 139,
        "point_group": "4/mmm",
        "crystal_system": "tetragonal",
        "hall": "-I 4 2"
    },
    "dielectric": {
        "epsilon_ionic": [
            [
                31.11797233,
                2e-08,
                -0.0
            ],
            [
                2e-08,
                31.11798992,
                -1e-08
            ],
            [
                -0.0,
                -1e-08,
                12.57375597
            ]
        ],
        "epsilon_ionic_avg": 24.936572740000003,
        "epsilon_ionic_eig": [
            31.11797232997726,
            31.11798992002274,
            12.57375597
        ],
        "epsilon_electronic": [
            [
                4.87882594,
                0.0,
                0.0
            ],
            [
                0.0,
                4.87882594,
                0.0
            ],
            [
                0.0,
                0.0,
                4.56132033
            ]
        ],
        "epsilon_electronic_avg": 4.772990736666666,
        "epsilon_electronic_eig": [
            4.87882594,
            4.87882594,
            4.56132033
        ]
    },
    "phonon": {
        "lowest_freq": -0.08174957904930598,
        "frequency": [
            -0.08174957904930598,
            -0.005866711389051314,
            -0.005866711389051314,
            1.588097639732515,
            1.588097639732515,
            1.9897763525725907,
            1.9897763525725907,
            2.7530684477365894,
            2.7530684477365894,
            2.9299351252376455,
            2.9299351252376455,
            3.593989098908013,
            3.770420262230527,
            4.13607377687811,
            4.305880517435009,
            4.311187960066181,
            4.311187960066181,
            4.375645355281379,
            4.897830070083426,
            4.897830070083426,
            6.246070111500342,
            6.539932032172097,
            6.539932032172097,
            7.109223380443179,
            7.109223380443179,
            8.008283107016528,
            10.69253990339947,
            16.862019821533124,
            16.862019821533124,
            16.900763893185278,
            16.900763893185278,
            17.20854910323793,
            17.359527290137212
        ]
    },
    "born_effective_charge": {
        "avg_abs_trace": 2.579290909090909,
        "tensors": [
            [
                [
                    2.39136,
                    -0.0,
                    -0.00013
                ],
                [
                    0.0,
                    2.39136,
                    -0.00021
                ],
                [
                    -0.0,
                    -0.0,
                    2.92048
                ]
            ],
            [
                [
                    2.39136,
                    -0.0,
                    0.00013
                ],
                [
                    0.0,
                    2.39136,
                    0.00021
                ],
                [
                    -0.0,
                    0.0,
                    2.92034
                ]
            ],
            [
                [
                    2.22305,
                    -0.0,
                    0.0
                ],
                [
                    -0.0,
                    2.22305,
                    0.0
                ],
                [
                    0.0,
                    0.0,
                    3.55037
                ]
            ],
            [
                [
                    3.72939,
                    0.0,
                    0.00024
                ],
                [
                    -0.0,
                    3.72939,
                    0.00038
                ],
                [
                    0.0,
                    0.0,
                    2.11884
                ]
            ],
            [
                [
                    3.72939,
                    -0.0,
                    -0.00024
                ],
                [
                    -0.0,
                    3.72939,
                    -0.00038
                ],
                [
                    0.0,
                    -0.0,
                    2.11915
                ]
            ],
            [
                [
                    -2.11299,
                    0.0,
                    -0.00011
                ],
                [
                    0.0,
                    -2.11299,
                    -8e-05
                ],
                [
                    0.0,
                    0.0,
                    -2.85485
                ]
            ],
            [
                [
                    -2.11299,
                    0.0,
                    0.00011
                ],
                [
                    -0.0,
                    -2.11299,
                    8e-05
                ],
                [
                    0.0,
                    0.0,
                    -2.85505
                ]
            ],
            [
                [
                    -2.00642,
                    0.0,
                    -0.00015
                ],
                [
                    -0.0,
                    -3.11288,
                    -0.00026
                ],
                [
                    0.0,
                    0.0,
                    -1.97979
                ]
            ],
            [
                [
                    -3.11288,
                    -0.0,
                    -6e-05
                ],
                [
                    -0.0,
                    -2.00641,
                    -5e-05
                ],
                [
                    0.0,
                    0.0,
                    -1.97979
                ]
            ],
            [
                [
                    -2.00642,
                    0.0,
                    0.00015
                ],
                [
                    -0.0,
                    -3.11288,
                    0.00026
                ],
                [
                    -0.0,
                    0.0,
                    -1.97985
                ]
            ],
            [
                [
                    -3.11288,
                    -0.0,
                    6e-05
                ],
                [
                    -0.0,
                    -2.00641,
                    5e-05
                ],
                [
                    0.0,
                    -0.0,
                    -1.97985
                ]
            ]
        ]
    },
    "band_gap": 0.8740999999999999,
    "is_direct": false,
    "formula": "Ba3In2O6"
}