{
    "mp_id": "mp-22355",
    "nelements": 4,
    "nsites": 20,
    "elements": [
        "In",
        "O",
        "Sb",
        "Sr"
    ],
    "structure": {
        "@module": "pymatgen.core.structure",
        "@class": "Structure",
        "charge": null,
        "lattice": {
            "matrix": [
                [
                    5.73849791,
                    0.0,
                    0.00010945
                ],
                [
                    0.0,
                    5.79692216,
                    0.0
                ],
                [
                    -5.75236771,
                    0.0,
                    8.13236616
                ]
            ],
            "a": 5.738497911043767,
            "b": 5.79692216,
            "c": 9.96118033324183,
            "alpha": 90.0,
            "beta": 125.27229732860657,
            "gamma": 90.0,
            "volume": 270.5318984533422
        },
        "sites": [
            {
                "species": [
                    {
                        "element": "Sr",
                        "occu": 1
                    }
                ],
                "abc": [
                    0.25899729,
                    0.46179397,
                    0.75019691
                ],
                "xyz": [
                    -2.829153073865112,
                    2.6769836980473753,
                    6.100904311473957
                ],
                "label": "Sr",
                "properties": {}
            },
            {
                "species": [
                    {
                        "element": "Sr",
                        "occu": 1
                    }
                ],
                "abc": [
                    0.74100271,
                    0.96179397,
                    0.74980309
                ],
                "xyz": [
                    -0.060900581134887055,
                    5.575444778047375,
                    6.0977543785260435
                ],
                "label": "Sr",
                "properties": {}
            },
            {
                "species": [
                    {
                        "element": "Sr",
                        "occu": 1
                    }
                ],
                "abc": [
                    0.74100271,
                    0.53820603,
                    0.24980309
                ],
                "xyz": [
                    2.8152832738651123,
                    3.119938461952625,
                    2.0315712985260443
                ],
                "label": "Sr",
                "properties": {}
            },
            {
                "species": [
                    {
                        "element": "Sr",
                        "occu": 1
                    }
                ],
                "abc": [
                    0.25899729,
                    0.03820603,
                    0.25019691
                ],
                "xyz": [
                    0.04703078113488801,
                    0.2214773819526248,
                    2.034721231473956
                ],
                "label": "Sr",
                "properties": {}
            },
            {
                "species": [
                    {
                        "element": "In",
                        "occu": 1
                    }
                ],
                "abc": [
                    0.5,
                    0.0,
                    0.0
                ],
                "xyz": [
                    2.869248955,
                    0.0,
                    5.4725e-05
                ],
                "label": "In",
                "properties": {}
            },
            {
                "species": [
                    {
                        "element": "In",
                        "occu": 1
                    }
                ],
                "abc": [
                    0.5,
                    0.5,
                    0.5
                ],
                "xyz": [
                    -0.006934899999999633,
                    2.89846108,
                    4.066237805
                ],
                "label": "In",
                "properties": {}
            },
            {
                "species": [
                    {
                        "element": "Sb",
                        "occu": 1
                    }
                ],
                "abc": [
                    0.0,
                    0.5,
                    0.0
                ],
                "xyz": [
                    0.0,
                    2.89846108,
                    0.0
                ],
                "label": "Sb",
                "properties": {}
            },
            {
                "species": [
                    {
                        "element": "Sb",
                        "occu": 1
                    }
                ],
                "abc": [
                    0.0,
                    0.0,
                    0.5
                ],
                "xyz": [
                    -2.876183855,
                    0.0,
                    4.06618308
                ],
                "label": "Sb",
                "properties": {}
            },
            {
                "species": [
                    {
                        "element": "O",
                        "occu": 1
                    }
                ],
                "abc": [
                    0.24199104,
                    0.77773092,
                    0.04401504
                ],
                "xyz": [
                    1.135474382428368,
                    4.508445604665187,
                    0.3579729077463744
                ],
                "label": "O",
                "properties": {}
            },
            {
                "species": [
                    {
                        "element": "O",
                        "occu": 1
                    }
                ],
                "abc": [
                    0.68140247,
                    0.79944573,
                    0.45935823
                ],
                "xyz": [
                    1.2678292003890852,
                    4.634324667954377,
                    3.7357439044698384
                ],
                "label": "O",
                "properties": {}
            },
            {
                "species": [
                    {
                        "element": "O",
                        "occu": 1
                    }
                ],
                "abc": [
                    0.15867257,
                    0.02286211,
                    0.73857001
                ],
                "xyz": [
                    -3.3379840657790485,
                    0.13252987208335762,
                    6.006339122827648
                ],
                "label": "O",
                "properties": {}
            },
            {
                "species": [
                    {
                        "element": "O",
                        "occu": 1
                    }
                ],
                "abc": [
                    0.75800896,
                    0.22226908,
                    0.95598496
                ],
                "xyz": [
                    -1.1493441824283677,
                    1.288476555334813,
                    7.774502702253626
                ],
                "label": "O",
                "properties": {}
            },
            {
                "species": [
                    {
                        "element": "O",
                        "occu": 1
                    }
                ],
                "abc": [
                    0.31859753,
                    0.20055427,
                    0.54064177
                ],
                "xyz": [
                    -1.2816990003890842,
                    1.1625974920456232,
                    4.396731705530162
                ],
                "label": "O",
                "properties": {}
            },
            {
                "species": [
                    {
                        "element": "O",
                        "occu": 1
                    }
                ],
                "abc": [
                    0.84132743,
                    0.52286211,
                    0.76142999
                ],
                "xyz": [
                    0.4479304107790494,
                    3.030990952083358,
                    6.192319567172351
                ],
                "label": "O",
                "properties": {}
            },
            {
                "species": [
                    {
                        "element": "O",
                        "occu": 1
                    }
                ],
                "abc": [
                    0.84132743,
                    0.97713789,
                    0.26142999
                ],
                "xyz": [
                    3.3241142657790492,
                    5.664392287916642,
                    2.126136487172352
                ],
                "label": "O",
                "properties": {}
            },
            {
                "species": [
                    {
                        "element": "O",
                        "occu": 1
                    }
                ],
                "abc": [
                    0.15867257,
                    0.47713789,
                    0.23857001
                ],
                "xyz": [
                    -0.4618002107790482,
                    2.7659312079166427,
                    1.940156042827648
                ],
                "label": "O",
                "properties": {}
            },
            {
                "species": [
                    {
                        "element": "O",
                        "occu": 1
                    }
                ],
                "abc": [
                    0.24199104,
                    0.72226908,
                    0.54401504
                ],
                "xyz": [
                    -1.740709472571632,
                    4.186937635334813,
                    4.424155987746374
                ],
                "label": "O",
                "properties": {}
            },
            {
                "species": [
                    {
                        "element": "O",
                        "occu": 1
                    }
                ],
                "abc": [
                    0.68140247,
                    0.70055427,
                    0.95935823
                ],
                "xyz": [
                    -1.608354654610915,
                    4.061058572045623,
                    7.801926984469838
                ],
                "label": "O",
                "properties": {}
            },
            {
                "species": [
                    {
                        "element": "O",
                        "occu": 1
                    }
                ],
                "abc": [
                    0.75800896,
                    0.27773092,
                    0.45598496
                ],
                "xyz": [
                    1.7268396725716322,
                    1.6099845246651872,
                    3.708319622253626
                ],
                "label": "O",
                "properties": {}
            },
            {
                "species": [
                    {
                        "element": "O",
                        "occu": 1
                    }
                ],
                "abc": [
                    0.31859753,
                    0.29944573,
                    0.04064177
                ],
                "xyz": [
                    1.5944848546109158,
                    1.735863587954377,
                    0.33054862553016173
                ],
                "label": "O",
                "properties": {}
            }
        ]
    },
    "spacegroup": {
        "source": "spglib",
        "symbol": "P2_1/c",
        "number": 14,
        "point_group": "2/m",
        "crystal_system": "monoclinic",
        "hall": "-P 2ybc"
    },
    "dielectric": {
        "epsilon_ionic": [
            [
                9.8428928,
                -1e-08,
                0.06229191
            ],
            [
                -1e-08,
                10.75290665,
                2e-08
            ],
            [
                0.06229191,
                2e-08,
                12.05754104
            ]
        ],
        "epsilon_ionic_avg": 10.88444683,
        "epsilon_ionic_eig": [
            9.841142085380973,
            12.059291754619025,
            10.752906650000002
        ],
        "epsilon_electronic": [
            [
                4.35234513,
                0.0,
                -0.00730111
            ],
            [
                0.0,
                4.33801126,
                0.0
            ],
            [
                -0.00730305,
                0.0,
                4.32187729
            ]
        ],
        "epsilon_electronic_avg": 4.337411226666666,
        "epsilon_electronic_eig": [
            4.354004779485218,
            4.320217640514781,
            4.33801126
        ]
    },
    "phonon": {
        "lowest_freq": -0.030847858850788726,
        "frequency": [
            -0.030847858850788726,
            -0.02127944403915735,
            -0.008156679221206466,
            2.741527277949758,
            3.1875872418429223,
            3.2620609223205626,
            3.388011990694749,
            3.4534841312736497,
            3.4544056243385666,
            3.6261989853022025,
            3.8084097818304574,
            3.9597808170726574,
            4.1616443538912105,
            4.23759762935138,
            4.391751144717473,
            4.509229683676122,
            4.563843730721315,
            4.623415934396454,
            4.652219209157899,
            5.11011780871168,
            5.458358628524621,
            5.813094591839597,
            6.161117540364742,
            6.176785004072651,
            6.271141388561745,
            6.321519892942893,
            6.681543587363974,
            6.768109223048994,
            7.353516345541505,
            7.835080135781022,
            7.856539709871373,
            7.9538795367767205,
            7.961468965970285,
            8.393575429336783,
            9.201026980478565,
            9.344897421817544,
            9.841402737254322,
            9.919252210891173,
            10.453868716805577,
            10.49350591260554,
            10.705311583599352,
            10.884309307734261,
            11.193743225824571,
            11.567415609100868,
            11.843361394701827,
            11.94362093358415,
            12.74838688910456,
            13.334879356470113,
            15.677818854315866,
            15.681119458903432,
            15.817436274482962,
            18.52697349989596,
            18.55664103434281,
            18.87313198246643,
            18.92119408167424,
            18.968922204090628,
            19.098770676326204,
            20.456600455904407,
            21.27564029505543,
            21.783471784891823
        ]
    },
    "born_effective_charge": {
        "avg_abs_trace": 2.660141,
        "tensors": [
            [
                [
                    2.52278,
                    -0.12376,
                    -0.02967
                ],
                [
                    -0.17558,
                    2.46305,
                    0.01519
                ],
                [
                    0.00952,
                    0.03895,
                    2.42115
                ]
            ],
            [
                [
                    2.52275,
                    0.12376,
                    -0.02962
                ],
                [
                    0.17558,
                    2.46305,
                    -0.01519
                ],
                [
                    0.00946,
                    -0.03898,
                    2.42117
                ]
            ],
            [
                [
                    2.52275,
                    -0.12376,
                    -0.02962
                ],
                [
                    -0.17521,
                    2.46311,
                    0.0152
                ],
                [
                    0.00946,
                    0.03898,
                    2.42117
                ]
            ],
            [
                [
                    2.52278,
                    0.12376,
                    -0.02967
                ],
                [
                    0.17521,
                    2.46311,
                    -0.0152
                ],
                [
                    0.00952,
                    -0.03895,
                    2.42115
                ]
            ],
            [
                [
                    3.67671,
                    0.21758,
                    0.36317
                ],
                [
                    -0.18813,
                    3.71026,
                    -0.03957
                ],
                [
                    -0.27698,
                    -0.1029,
                    3.6926
                ]
            ],
            [
                [
                    3.67671,
                    -0.21758,
                    0.36317
                ],
                [
                    0.18813,
                    3.71026,
                    0.03957
                ],
                [
                    -0.27698,
                    0.1029,
                    3.6926
                ]
            ],
            [
                [
                    4.65109,
                    -0.32756,
                    -0.55159
                ],
                [
                    0.29588,
                    4.68273,
                    -0.02197
                ],
                [
                    0.42814,
                    -0.13928,
                    4.67471
                ]
            ],
            [
                [
                    4.65109,
                    0.32756,
                    -0.55159
                ],
                [
                    -0.29588,
                    4.68273,
                    0.02197
                ],
                [
                    0.42814,
                    0.13928,
                    4.67471
                ]
            ],
            [
                [
                    -2.28438,
                    0.60858,
                    0.13298
                ],
                [
                    0.57594,
                    -2.56163,
                    -0.17382
                ],
                [
                    0.05132,
                    -0.138,
                    -1.80255
                ]
            ],
            [
                [
                    -2.47935,
                    0.55967,
                    0.08682
                ],
                [
                    0.63853,
                    -2.36676,
                    -0.01721
                ],
                [
                    0.05022,
                    0.01132,
                    -1.80131
                ]
            ],
            [
                [
                    -1.92298,
                    0.0513,
                    -0.09596
                ],
                [
                    0.1036,
                    -1.73108,
                    -0.05085
                ],
                [
                    -0.18655,
                    -0.06445,
                    -3.0009
                ]
            ],
            [
                [
                    -2.28433,
                    0.60859,
                    0.13297
                ],
                [
                    0.57511,
                    -2.56172,
                    -0.17395
                ],
                [
                    0.05126,
                    -0.13802,
                    -1.8026
                ]
            ],
            [
                [
                    -2.47939,
                    0.55969,
                    0.08682
                ],
                [
                    0.63795,
                    -2.36676,
                    -0.01709
                ],
                [
                    0.05021,
                    0.01128,
                    -1.80127
                ]
            ],
            [
                [
                    -1.92291,
                    -0.05132,
                    -0.09592
                ],
                [
                    -0.1036,
                    -1.73108,
                    0.05085
                ],
                [
                    -0.18661,
                    0.0645,
                    -3.001
                ]
            ],
            [
                [
                    -1.92291,
                    0.05132,
                    -0.09592
                ],
                [
                    0.10345,
                    -1.7312,
                    -0.05075
                ],
                [
                    -0.18661,
                    -0.0645,
                    -3.001
                ]
            ],
            [
                [
                    -1.92298,
                    -0.0513,
                    -0.09596
                ],
                [
                    -0.10345,
                    -1.7312,
                    0.05075
                ],
                [
                    -0.18655,
                    0.06445,
                    -3.0009
                ]
            ],
            [
                [
                    -2.28438,
                    -0.60858,
                    0.13298
                ],
                [
                    -0.57511,
                    -2.56172,
                    0.17395
                ],
                [
                    0.05132,
                    0.138,
                    -1.80255
                ]
            ],
            [
                [
                    -2.47935,
                    -0.55967,
                    0.08682
                ],
                [
                    -0.63795,
                    -2.36676,
                    0.01709
                ],
                [
                    0.05022,
                    -0.01132,
                    -1.80131
                ]
            ],
            [
                [
                    -2.28433,
                    -0.60859,
                    0.13297
                ],
                [
                    -0.57594,
                    -2.56163,
                    0.17382
                ],
                [
                    0.05126,
                    0.13802,
                    -1.8026
                ]
            ],
            [
                [
                    -2.47939,
                    -0.55969,
                    0.08682
                ],
                [
                    -0.63853,
                    -2.36676,
                    0.01721
                ],
                [
                    0.05021,
                    -0.01128,
                    -1.80127
                ]
            ]
        ]
    },
    "band_gap": 1.9203000000000001,
    "is_direct": false,
    "formula": "Sr2InSbO6"
}