{
    "mp_id": "mp-28670",
    "nelements": 3,
    "nsites": 18,
    "elements": [
        "Ba",
        "Bi",
        "O"
    ],
    "structure": {
        "@module": "pymatgen.core.structure",
        "@class": "Structure",
        "charge": null,
        "lattice": {
            "matrix": [
                [
                    7.40730279,
                    0.0,
                    0.00378069
                ],
                [
                    0.0,
                    7.51584719,
                    0.0
                ],
                [
                    -1.21235871,
                    0.0,
                    6.01650017
                ]
            ],
            "a": 7.407303754832703,
            "b": 7.51584719,
            "c": 6.137433334654062,
            "alpha": 90.0,
            "beta": 101.36361341767487,
            "gamma": 90.0,
            "volume": 334.9859844739669
        },
        "sites": [
            {
                "species": [
                    {
                        "element": "Ba",
                        "occu": 1
                    }
                ],
                "abc": [
                    0.86506504,
                    0.07502286,
                    0.22118011
                ],
                "xyz": [
                    6.139649051486203,
                    0.5638603515167634,
                    1.3340007121616961
                ],
                "label": "Ba",
                "properties": {}
            },
            {
                "species": [
                    {
                        "element": "Ba",
                        "occu": 1
                    }
                ],
                "abc": [
                    0.13493496,
                    0.57502286,
                    0.27881989
                ],
                "xyz": [
                    0.6614743835137964,
                    4.321783946516764,
                    1.6780300628383036
                ],
                "label": "Ba",
                "properties": {}
            },
            {
                "species": [
                    {
                        "element": "Ba",
                        "occu": 1
                    }
                ],
                "abc": [
                    0.13493496,
                    0.92497714,
                    0.77881989
                ],
                "xyz": [
                    0.05529502851379653,
                    6.951986838483236,
                    4.6862801478383025
                ],
                "label": "Ba",
                "properties": {}
            },
            {
                "species": [
                    {
                        "element": "Ba",
                        "occu": 1
                    }
                ],
                "abc": [
                    0.86506504,
                    0.42497714,
                    0.72118011
                ],
                "xyz": [
                    5.533469696486203,
                    3.194063243483236,
                    4.342250797161697
                ],
                "label": "Ba",
                "properties": {}
            },
            {
                "species": [
                    {
                        "element": "Bi",
                        "occu": 1
                    }
                ],
                "abc": [
                    0.3734992,
                    0.12219034,
                    0.27681692
                ],
                "xyz": [
                    2.4310202621853945,
                    0.9183639235341445,
                    1.6668811309293243
                ],
                "label": "Bi",
                "properties": {}
            },
            {
                "species": [
                    {
                        "element": "Bi",
                        "occu": 1
                    }
                ],
                "abc": [
                    0.6265008,
                    0.62219034,
                    0.22318308
                ],
                "xyz": [
                    4.370103172814605,
                    4.676287518534144,
                    1.3451496440706756
                ],
                "label": "Bi",
                "properties": {}
            },
            {
                "species": [
                    {
                        "element": "Bi",
                        "occu": 1
                    }
                ],
                "abc": [
                    0.6265008,
                    0.87780966,
                    0.72318308
                ],
                "xyz": [
                    3.763923817814605,
                    6.597483266465855,
                    4.353399729070675
                ],
                "label": "Bi",
                "properties": {}
            },
            {
                "species": [
                    {
                        "element": "Bi",
                        "occu": 1
                    }
                ],
                "abc": [
                    0.3734992,
                    0.37780966,
                    0.77681692
                ],
                "xyz": [
                    1.8248409071853946,
                    2.8395596714658553,
                    4.675131215929324
                ],
                "label": "Bi",
                "properties": {}
            },
            {
                "species": [
                    {
                        "element": "O",
                        "occu": 1
                    }
                ],
                "abc": [
                    0.5,
                    0.0,
                    0.0
                ],
                "xyz": [
                    3.703651395,
                    0.0,
                    0.001890345
                ],
                "label": "O",
                "properties": {}
            },
            {
                "species": [
                    {
                        "element": "O",
                        "occu": 1
                    }
                ],
                "abc": [
                    0.5,
                    0.5,
                    0.5
                ],
                "xyz": [
                    3.09747204,
                    3.757923595,
                    3.01014043
                ],
                "label": "O",
                "properties": {}
            },
            {
                "species": [
                    {
                        "element": "O",
                        "occu": 1
                    }
                ],
                "abc": [
                    0.81440708,
                    0.08821181,
                    0.76056998
                ],
                "xyz": [
                    5.110476196062227,
                    0.6629864843133139,
                    4.579048434670181
                ],
                "label": "O",
                "properties": {}
            },
            {
                "species": [
                    {
                        "element": "O",
                        "occu": 1
                    }
                ],
                "abc": [
                    0.18559292,
                    0.58821181,
                    0.73943002
                ],
                "xyz": [
                    0.4782885289377725,
                    4.420910079313313,
                    4.449482510329818
                ],
                "label": "O",
                "properties": {}
            },
            {
                "species": [
                    {
                        "element": "O",
                        "occu": 1
                    }
                ],
                "abc": [
                    0.18559292,
                    0.91178819,
                    0.23943002
                ],
                "xyz": [
                    1.0844678839377726,
                    6.852860705686686,
                    1.441232425329818
                ],
                "label": "O",
                "properties": {}
            },
            {
                "species": [
                    {
                        "element": "O",
                        "occu": 1
                    }
                ],
                "abc": [
                    0.81440708,
                    0.41178819,
                    0.26056998
                ],
                "xyz": [
                    5.716655551062227,
                    3.094937110686686,
                    1.5707983496701816
                ],
                "label": "O",
                "properties": {}
            },
            {
                "species": [
                    {
                        "element": "O",
                        "occu": 1
                    }
                ],
                "abc": [
                    0.19329014,
                    0.27456318,
                    0.03555703
                ],
                "xyz": [
                    1.3886507182792593,
                    2.0635749048804644,
                    0.2146596471390917
                ],
                "label": "O",
                "properties": {}
            },
            {
                "species": [
                    {
                        "element": "O",
                        "occu": 1
                    }
                ],
                "abc": [
                    0.80670986,
                    0.77456318,
                    0.46444297
                ],
                "xyz": [
                    5.412472716720741,
                    5.821498499880464,
                    2.797371127860908
                ],
                "label": "O",
                "properties": {}
            },
            {
                "species": [
                    {
                        "element": "O",
                        "occu": 1
                    }
                ],
                "abc": [
                    0.80670986,
                    0.72543682,
                    0.96444297
                ],
                "xyz": [
                    4.806293361720741,
                    5.452272285119536,
                    5.805621212860908
                ],
                "label": "O",
                "properties": {}
            },
            {
                "species": [
                    {
                        "element": "O",
                        "occu": 1
                    }
                ],
                "abc": [
                    0.19329014,
                    0.22543682,
                    0.53555703
                ],
                "xyz": [
                    0.7824713632792595,
                    1.6943486901195357,
                    3.2229097321390916
                ],
                "label": "O",
                "properties": {}
            }
        ]
    },
    "spacegroup": {
        "source": "spglib",
        "symbol": "P2_1/c",
        "number": 14,
        "point_group": "2/m",
        "crystal_system": "monoclinic",
        "hall": "-P 2ybc"
    },
    "dielectric": {
        "epsilon_ionic": [
            [
                18.42065948,
                -1e-07,
                -11.59008396
            ],
            [
                -1e-07,
                20.84407098,
                1.5e-07
            ],
            [
                -11.59008396,
                1.5e-07,
                44.25922645
            ]
        ],
        "epsilon_ionic_avg": 27.84131897,
        "epsilon_ionic_eig": [
            48.69615026860302,
            13.98373566139697,
            20.84407098
        ],
        "epsilon_electronic": [
            [
                5.03407845,
                0.0,
                -0.36560984
            ],
            [
                0.0,
                5.2438648,
                0.0
            ],
            [
                -0.36561375,
                0.0,
                5.82475982
            ]
        ],
        "epsilon_electronic_avg": 5.3675676900000004,
        "epsilon_electronic_eig": [
            4.890933998848992,
            5.967904271151007,
            5.2438648
        ]
    },
    "phonon": {
        "lowest_freq": -0.042036176966042046,
        "frequency": [
            -0.042036176966042046,
            -0.032319691770634075,
            -0.017545938421297216,
            1.2436283958737864,
            1.2626084512242892,
            1.5082542432278063,
            1.8664705648801536,
            2.0868869485002346,
            2.2595570426155134,
            2.287971156224793,
            2.3364617966103953,
            2.4712462186023147,
            2.727831701286354,
            2.8080216063939316,
            3.0667006728661996,
            3.139416475504619,
            3.167953351654455,
            3.2835041946869614,
            3.417357233606175,
            3.506009519737368,
            3.587536400226587,
            3.679324169336903,
            3.804677546029718,
            4.204107178531141,
            4.221761603848286,
            4.28359189649969,
            4.612580844011091,
            4.972429738508081,
            4.987900343036218,
            5.3893316441781565,
            5.578319412182956,
            5.928919921217563,
            6.369444081199482,
            7.0426359268323715,
            7.225588016626863,
            7.593911277384793,
            7.781693999290126,
            8.338401717568257,
            8.58452485255241,
            9.48032495204831,
            9.486751978099832,
            9.727837576675347,
            9.75380638691514,
            9.948620848330455,
            12.087334457715093,
            13.299957230902608,
            14.320456240443006,
            14.368051276171265,
            14.8439575563397,
            15.139102835751189,
            16.991057209449423,
            17.057941336145866,
            17.18259828531854,
            17.534229983409215
        ]
    },
    "born_effective_charge": {
        "avg_abs_trace": 2.856891851851852,
        "tensors": [
            [
                [
                    3.09574,
                    0.05078,
                    0.21221
                ],
                [
                    0.15739,
                    2.88152,
                    0.12405
                ],
                [
                    0.17161,
                    0.01076,
                    2.48933
                ]
            ],
            [
                [
                    3.09569,
                    -0.05067,
                    0.21191
                ],
                [
                    -0.15739,
                    2.88152,
                    -0.12405
                ],
                [
                    0.17213,
                    -0.01047,
                    2.4892
                ]
            ],
            [
                [
                    3.09569,
                    0.05067,
                    0.21191
                ],
                [
                    0.15768,
                    2.88123,
                    0.12384
                ],
                [
                    0.17213,
                    0.01047,
                    2.4892
                ]
            ],
            [
                [
                    3.09574,
                    -0.05078,
                    0.21221
                ],
                [
                    -0.15768,
                    2.88123,
                    -0.12384
                ],
                [
                    0.17161,
                    -0.01076,
                    2.48933
                ]
            ],
            [
                [
                    3.02343,
                    -0.07783,
                    -0.94947
                ],
                [
                    -0.91328,
                    3.55216,
                    0.76428
                ],
                [
                    -1.13381,
                    0.62082,
                    4.24178
                ]
            ],
            [
                [
                    3.02432,
                    0.07835,
                    -0.94963
                ],
                [
                    0.91328,
                    3.55216,
                    -0.76428
                ],
                [
                    -1.13561,
                    -0.62314,
                    4.24141
                ]
            ],
            [
                [
                    3.02432,
                    -0.07835,
                    -0.94963
                ],
                [
                    -0.91379,
                    3.55224,
                    0.7633
                ],
                [
                    -1.13561,
                    0.62314,
                    4.24141
                ]
            ],
            [
                [
                    3.02343,
                    0.07783,
                    -0.94947
                ],
                [
                    0.91379,
                    3.55224,
                    -0.7633
                ],
                [
                    -1.13381,
                    -0.62082,
                    4.24178
                ]
            ],
            [
                [
                    -2.71132,
                    0.87952,
                    1.18366
                ],
                [
                    0.82864,
                    -2.352,
                    -0.92738
                ],
                [
                    1.07049,
                    -0.9277,
                    -3.42652
                ]
            ],
            [
                [
                    -2.71132,
                    -0.87952,
                    1.18366
                ],
                [
                    -0.82864,
                    -2.352,
                    0.92738
                ],
                [
                    1.07049,
                    0.9277,
                    -3.42652
                ]
            ],
            [
                [
                    -2.48888,
                    -0.69477,
                    -0.13567
                ],
                [
                    -0.63947,
                    -2.78207,
                    -0.16975
                ],
                [
                    0.05359,
                    0.14883,
                    -1.87759
                ]
            ],
            [
                [
                    -2.48873,
                    0.69481,
                    -0.13588
                ],
                [
                    0.63947,
                    -2.78207,
                    0.16975
                ],
                [
                    0.05232,
                    -0.14892,
                    -1.8776
                ]
            ],
            [
                [
                    -2.48873,
                    -0.69481,
                    -0.13588
                ],
                [
                    -0.63972,
                    -2.78211,
                    -0.16944
                ],
                [
                    0.05232,
                    0.14892,
                    -1.8776
                ]
            ],
            [
                [
                    -2.48888,
                    0.69477,
                    -0.13567
                ],
                [
                    0.63972,
                    -2.78211,
                    0.16944
                ],
                [
                    0.05359,
                    -0.14883,
                    -1.87759
                ]
            ],
            [
                [
                    -2.27518,
                    0.08304,
                    0.28113
                ],
                [
                    0.13684,
                    -2.47571,
                    0.94195
                ],
                [
                    0.37478,
                    0.88611,
                    -3.14008
                ]
            ],
            [
                [
                    -2.27506,
                    -0.08275,
                    0.28175
                ],
                [
                    -0.13684,
                    -2.47571,
                    -0.94195
                ],
                [
                    0.3745,
                    -0.88644,
                    -3.13992
                ]
            ],
            [
                [
                    -2.27506,
                    0.08275,
                    0.28175
                ],
                [
                    0.13702,
                    -2.47526,
                    0.9421
                ],
                [
                    0.3745,
                    0.88644,
                    -3.13992
                ]
            ],
            [
                [
                    -2.27518,
                    -0.08304,
                    0.28113
                ],
                [
                    -0.13702,
                    -2.47526,
                    -0.9421
                ],
                [
                    0.37478,
                    -0.88611,
                    -3.14008
                ]
            ]
        ]
    },
    "band_gap": 1.8276,
    "is_direct": false,
    "formula": "Ba2Bi2O5"
}