{
    "mp_id": "mp-23136",
    "nelements": 4,
    "nsites": 24,
    "elements": [
        "Bi",
        "K",
        "O",
        "W"
    ],
    "structure": {
        "@module": "pymatgen.core.structure",
        "@class": "Structure",
        "charge": null,
        "lattice": {
            "matrix": [
                [
                    5.43011086,
                    -5.34336125,
                    0.00074125
                ],
                [
                    5.43011086,
                    5.34336125,
                    0.00074125
                ],
                [
                    -4.87298366,
                    0.0,
                    5.67390929
                ]
            ],
            "a": 7.618242182376658,
            "b": 7.618242182376658,
            "c": 7.479252394576299,
            "alpha": 117.66651732869387,
            "beta": 117.66651732869387,
            "gamma": 89.07731102206677,
            "volume": 329.2960563651459
        },
        "sites": [
            {
                "species": [
                    {
                        "element": "K",
                        "occu": 1
                    }
                ],
                "abc": [
                    0.70972736,
                    0.29027264,
                    0.25
                ],
                "xyz": [
                    4.211864945000001,
                    -2.2412980969776,
                    1.4192185725
                ],
                "label": "K",
                "properties": {}
            },
            {
                "species": [
                    {
                        "element": "K",
                        "occu": 1
                    }
                ],
                "abc": [
                    0.29027264,
                    0.70972736,
                    0.75
                ],
                "xyz": [
                    1.7753731150000007,
                    2.2412980969776,
                    4.2561732175
                ],
                "label": "K",
                "properties": {}
            },
            {
                "species": [
                    {
                        "element": "Bi",
                        "occu": 1
                    }
                ],
                "abc": [
                    0.72332321,
                    0.27667679,
                    0.75
                ],
                "xyz": [
                    1.7753731149999998,
                    -2.386593173079225,
                    4.2561732175
                ],
                "label": "Bi",
                "properties": {}
            },
            {
                "species": [
                    {
                        "element": "Bi",
                        "occu": 1
                    }
                ],
                "abc": [
                    0.27667679,
                    0.72332321,
                    0.25
                ],
                "xyz": [
                    4.211864945,
                    2.386593173079225,
                    1.4192185725
                ],
                "label": "Bi",
                "properties": {}
            },
            {
                "species": [
                    {
                        "element": "W",
                        "occu": 1
                    }
                ],
                "abc": [
                    0.8021171,
                    0.80900946,
                    0.77589313
                ],
                "xyz": [
                    4.967681285894185,
                    0.036828369345050405,
                    4.403541485916778
                ],
                "label": "W",
                "properties": {}
            },
            {
                "species": [
                    {
                        "element": "W",
                        "occu": 1
                    }
                ],
                "abc": [
                    0.80900946,
                    0.8021171,
                    0.27589313
                ],
                "xyz": [
                    7.404173115894185,
                    -0.036828369345050405,
                    1.5665868409167776
                ],
                "label": "W",
                "properties": {}
            },
            {
                "species": [
                    {
                        "element": "W",
                        "occu": 1
                    }
                ],
                "abc": [
                    0.1978829,
                    0.19099054,
                    0.22410687
                ],
                "xyz": [
                    1.0195567741058142,
                    -0.03682836934505018,
                    1.2718503040832223
                ],
                "label": "W",
                "properties": {}
            },
            {
                "species": [
                    {
                        "element": "W",
                        "occu": 1
                    }
                ],
                "abc": [
                    0.19099054,
                    0.1978829,
                    0.72410687
                ],
                "xyz": [
                    -1.4169350558941853,
                    0.03682836934505018,
                    4.108804949083222
                ],
                "label": "W",
                "properties": {}
            },
            {
                "species": [
                    {
                        "element": "O",
                        "occu": 1
                    }
                ],
                "abc": [
                    0.71675718,
                    0.54547224,
                    0.6823488
                ],
                "xyz": [
                    3.528971128532894,
                    -0.9152373111045748,
                    3.872520822897927
                ],
                "label": "O",
                "properties": {}
            },
            {
                "species": [
                    {
                        "element": "O",
                        "occu": 1
                    }
                ],
                "abc": [
                    0.45452776,
                    0.28324282,
                    0.8176512
                ],
                "xyz": [
                    0.02177510146710704,
                    -0.9152373111045748,
                    4.639825612102073
                ],
                "label": "O",
                "properties": {}
            },
            {
                "species": [
                    {
                        "element": "O",
                        "occu": 1
                    }
                ],
                "abc": [
                    0.28324282,
                    0.45452776,
                    0.3176512
                ],
                "xyz": [
                    2.458266931467107,
                    0.9152373111045748,
                    1.802870967102073
                ],
                "label": "O",
                "properties": {}
            },
            {
                "species": [
                    {
                        "element": "O",
                        "occu": 1
                    }
                ],
                "abc": [
                    0.54547224,
                    0.71675718,
                    0.1823488
                ],
                "xyz": [
                    5.9654629585328935,
                    0.9152373111045748,
                    1.035566177897927
                ],
                "label": "O",
                "properties": {}
            },
            {
                "species": [
                    {
                        "element": "O",
                        "occu": 1
                    }
                ],
                "abc": [
                    0.56387605,
                    0.87648225,
                    0.63486399
                ],
                "xyz": [
                    4.727623397528735,
                    1.6703678555897503,
                    3.6032283563373424
                ],
                "label": "O",
                "properties": {}
            },
            {
                "species": [
                    {
                        "element": "O",
                        "occu": 1
                    }
                ],
                "abc": [
                    0.12351775,
                    0.43612395,
                    0.86513601
                ],
                "xyz": [
                    -1.176877167528735,
                    1.6703678555897499,
                    4.909118078662658
                ],
                "label": "O",
                "properties": {}
            },
            {
                "species": [
                    {
                        "element": "O",
                        "occu": 1
                    }
                ],
                "abc": [
                    0.43612395,
                    0.12351775,
                    0.36513601
                ],
                "xyz": [
                    1.2596146624712652,
                    -1.6703678555897499,
                    2.072163433662658
                ],
                "label": "O",
                "properties": {}
            },
            {
                "species": [
                    {
                        "element": "O",
                        "occu": 1
                    }
                ],
                "abc": [
                    0.87648225,
                    0.56387605,
                    0.13486399
                ],
                "xyz": [
                    7.164115227528735,
                    -1.6703678555897503,
                    0.7662737113373421
                ],
                "label": "O",
                "properties": {}
            },
            {
                "species": [
                    {
                        "element": "O",
                        "occu": 1
                    }
                ],
                "abc": [
                    0.75013881,
                    0.8726631,
                    0.05535584
                ],
                "xyz": [
                    8.54224617131417,
                    0.6546915433697622,
                    0.3152869167475411
                ],
                "label": "O",
                "properties": {}
            },
            {
                "species": [
                    {
                        "element": "O",
                        "occu": 1
                    }
                ],
                "abc": [
                    0.1273369,
                    0.24986119,
                    0.44464416
                ],
                "xyz": [
                    -0.11851628131416803,
                    0.6546915433697624,
                    2.523150228252459
                ],
                "label": "O",
                "properties": {}
            },
            {
                "species": [
                    {
                        "element": "O",
                        "occu": 1
                    }
                ],
                "abc": [
                    0.24986119,
                    0.1273369,
                    0.94464416
                ],
                "xyz": [
                    -2.5550081113141676,
                    -0.6546915433697624,
                    5.3601048732524585
                ],
                "label": "O",
                "properties": {}
            },
            {
                "species": [
                    {
                        "element": "O",
                        "occu": 1
                    }
                ],
                "abc": [
                    0.8726631,
                    0.75013881,
                    0.55535584
                ],
                "xyz": [
                    6.105754341314169,
                    -0.6546915433697622,
                    3.1522415617475414
                ],
                "label": "O",
                "properties": {}
            },
            {
                "species": [
                    {
                        "element": "O",
                        "occu": 1
                    }
                ],
                "abc": [
                    0.91068861,
                    0.12680775,
                    0.97462065
                ],
                "xyz": [
                    0.8844097494978902,
                    -4.1885586119406755,
                    5.530678204437688
                ],
                "label": "O",
                "properties": {}
            },
            {
                "species": [
                    {
                        "element": "O",
                        "occu": 1
                    }
                ],
                "abc": [
                    0.08931139,
                    0.87319225,
                    0.02537935
                ],
                "xyz": [
                    5.10282831050211,
                    4.188558611940675,
                    0.14471358556231148
                ],
                "label": "O",
                "properties": {}
            },
            {
                "species": [
                    {
                        "element": "O",
                        "occu": 1
                    }
                ],
                "abc": [
                    0.87319225,
                    0.08931139,
                    0.52537935
                ],
                "xyz": [
                    2.66633648050211,
                    -4.188558611940675,
                    2.981668230562312
                ],
                "label": "O",
                "properties": {}
            },
            {
                "species": [
                    {
                        "element": "O",
                        "occu": 1
                    }
                ],
                "abc": [
                    0.12680775,
                    0.91068861,
                    0.47462065
                ],
                "xyz": [
                    3.32090157949789,
                    4.1885586119406755,
                    2.6937235594376885
                ],
                "label": "O",
                "properties": {}
            }
        ]
    },
    "spacegroup": {
        "source": "spglib",
        "symbol": "C2/c",
        "number": 15,
        "point_group": "2/m",
        "crystal_system": "monoclinic",
        "hall": "-C 2yc"
    },
    "dielectric": {
        "epsilon_ionic": [
            [
                26.28887531,
                -4e-08,
                -2.11683704
            ],
            [
                -4e-08,
                24.8765945,
                2e-08
            ],
            [
                -2.11683704,
                2e-08,
                20.12294753
            ]
        ],
        "epsilon_ionic_avg": 23.762805779999997,
        "epsilon_ionic_eig": [
            19.4661700651788,
            26.9456527748212,
            24.876594499999992
        ],
        "epsilon_electronic": [
            [
                5.42437735,
                0.0,
                -0.12621107
            ],
            [
                0.0,
                5.39162297,
                0.0
            ],
            [
                -0.12621759,
                0.0,
                5.44968056
            ]
        ],
        "epsilon_electronic_avg": 5.421893626666667,
        "epsilon_electronic_eig": [
            5.310182117452518,
            5.563875792547482,
            5.39162297
        ]
    },
    "phonon": {
        "lowest_freq": -0.05241758108888713,
        "frequency": [
            -0.05241758108888713,
            -0.024490618429717167,
            -0.020696355678480504,
            1.5526108151713596,
            1.9614525502690043,
            2.0587464716492088,
            2.1270468591036367,
            2.3939524863414183,
            2.418578112401669,
            2.5792531183515526,
            2.6777973504099193,
            2.737899483168316,
            2.9605371571581722,
            3.128119225182253,
            3.130619294236997,
            3.320428608130625,
            3.5160428360324456,
            3.616552981837597,
            3.822149660889791,
            4.048690047862452,
            4.401627067377,
            4.538479250851947,
            4.5992862693685925,
            4.843501988618106,
            5.271623335078289,
            5.5964202934292615,
            5.722110991802857,
            5.864631788314205,
            6.181642026809268,
            6.20488058634489,
            6.626062951921374,
            7.321692787614976,
            7.792904776967237,
            7.857710849037528,
            7.92334921730035,
            8.13927766384538,
            8.399737114529755,
            8.43508998927981,
            8.934425254282596,
            9.303006882778659,
            9.332525954833379,
            9.388299105583565,
            9.44376727968302,
            10.076546448549495,
            10.60139579037304,
            11.103082806531207,
            11.109385472687991,
            11.392389309672195,
            11.812422437770804,
            12.034108031967552,
            12.571445028983467,
            12.626889331138878,
            12.926070028504762,
            13.327706110714121,
            14.951824183713773,
            15.12914570346203,
            16.44697582328472,
            16.76727670650382,
            18.3491902932107,
            18.516021445755797,
            19.295835588114496,
            19.468596260356314,
            19.83532657819581,
            20.527666380051958,
            20.53526301556563,
            20.925493230474817,
            21.293278142463947,
            22.54622624940887,
            23.66398903610297,
            24.566248909288415,
            25.791236497552962,
            26.167543175521715
        ]
    },
    "born_effective_charge": {
        "avg_abs_trace": 3.4992545833333337,
        "tensors": [
            [
                [
                    1.16133,
                    -1e-05,
                    0.03068
                ],
                [
                    0.0,
                    1.4488,
                    -0.0
                ],
                [
                    0.0129,
                    1e-05,
                    1.22225
                ]
            ],
            [
                [
                    1.16133,
                    1e-05,
                    0.03068
                ],
                [
                    0.0,
                    1.44883,
                    -0.0
                ],
                [
                    0.0129,
                    -1e-05,
                    1.22225
                ]
            ],
            [
                [
                    5.40893,
                    -4e-05,
                    -0.19186
                ],
                [
                    0.0,
                    6.86494,
                    -0.0
                ],
                [
                    0.058,
                    0.0,
                    5.5106
                ]
            ],
            [
                [
                    5.40893,
                    4e-05,
                    -0.19186
                ],
                [
                    0.0,
                    6.86476,
                    -0.0
                ],
                [
                    0.058,
                    -0.0,
                    5.5106
                ]
            ],
            [
                [
                    7.37719,
                    0.04779,
                    -0.4747
                ],
                [
                    0.64741,
                    6.05828,
                    -0.42265
                ],
                [
                    -0.71324,
                    -0.66312,
                    7.24967
                ]
            ],
            [
                [
                    7.37719,
                    -0.04779,
                    -0.4747
                ],
                [
                    -0.64762,
                    6.05833,
                    0.42237
                ],
                [
                    -0.71324,
                    0.66312,
                    7.24967
                ]
            ],
            [
                [
                    7.37709,
                    0.04737,
                    -0.47418
                ],
                [
                    0.64762,
                    6.05833,
                    -0.42237
                ],
                [
                    -0.71328,
                    -0.66272,
                    7.24927
                ]
            ],
            [
                [
                    7.37709,
                    -0.04737,
                    -0.47418
                ],
                [
                    -0.64741,
                    6.05828,
                    0.42265
                ],
                [
                    -0.71328,
                    0.66272,
                    7.24927
                ]
            ],
            [
                [
                    -3.96078,
                    -2.34903,
                    -0.43156
                ],
                [
                    -2.31094,
                    -2.49764,
                    -0.35869
                ],
                [
                    -0.15695,
                    -0.34671,
                    -1.22464
                ]
            ],
            [
                [
                    -3.96075,
                    2.34908,
                    -0.43182
                ],
                [
                    2.31094,
                    -2.49764,
                    0.35869
                ],
                [
                    -0.15703,
                    0.34675,
                    -1.22433
                ]
            ],
            [
                [
                    -3.96075,
                    -2.34908,
                    -0.43182
                ],
                [
                    -2.31109,
                    -2.49708,
                    -0.35896
                ],
                [
                    -0.15703,
                    -0.34675,
                    -1.22433
                ]
            ],
            [
                [
                    -3.96078,
                    2.34903,
                    -0.43156
                ],
                [
                    2.31109,
                    -2.49708,
                    0.35896
                ],
                [
                    -0.15695,
                    0.34671,
                    -1.22464
                ]
            ],
            [
                [
                    -1.50004,
                    0.30311,
                    -0.37294
                ],
                [
                    0.11936,
                    -3.45042,
                    1.57005
                ],
                [
                    -0.49413,
                    2.05789,
                    -2.9264
                ]
            ],
            [
                [
                    -1.49994,
                    -0.30327,
                    -0.37315
                ],
                [
                    -0.11936,
                    -3.45042,
                    -1.57005
                ],
                [
                    -0.49427,
                    -2.05794,
                    -2.92636
                ]
            ],
            [
                [
                    -1.49994,
                    0.30327,
                    -0.37315
                ],
                [
                    0.11922,
                    -3.45022,
                    1.57009
                ],
                [
                    -0.49427,
                    2.05794,
                    -2.92636
                ]
            ],
            [
                [
                    -1.50004,
                    -0.30311,
                    -0.37294
                ],
                [
                    -0.11922,
                    -3.45022,
                    -1.57009
                ],
                [
                    -0.49413,
                    -2.05789,
                    -2.9264
                ]
            ],
            [
                [
                    -2.91267,
                    -0.48433,
                    2.18187
                ],
                [
                    -0.19207,
                    -1.08519,
                    0.15873
                ],
                [
                    1.97398,
                    0.46659,
                    -3.30385
                ]
            ],
            [
                [
                    -2.91262,
                    0.48404,
                    2.18104
                ],
                [
                    0.19207,
                    -1.08519,
                    -0.15873
                ],
                [
                    1.97369,
                    -0.46577,
                    -3.30278
                ]
            ],
            [
                [
                    -2.91262,
                    -0.48404,
                    2.18104
                ],
                [
                    -0.19205,
                    -1.08512,
                    0.1588
                ],
                [
                    1.97369,
                    0.46577,
                    -3.30278
                ]
            ],
            [
                [
                    -2.91267,
                    0.48433,
                    2.18187
                ],
                [
                    0.19205,
                    -1.08512,
                    -0.1588
                ],
                [
                    1.97398,
                    -0.46659,
                    -3.30385
                ]
            ],
            [
                [
                    -2.28899,
                    -0.68202,
                    -0.82189
                ],
                [
                    -0.56437,
                    -3.18245,
                    1.05827
                ],
                [
                    -0.64468,
                    1.26597,
                    -3.16162
                ]
            ],
            [
                [
                    -2.28873,
                    -0.68223,
                    -0.8215
                ],
                [
                    -0.56445,
                    -3.18214,
                    1.05739
                ],
                [
                    -0.645,
                    1.26613,
                    -3.1618
                ]
            ],
            [
                [
                    -2.28873,
                    0.68223,
                    -0.8215
                ],
                [
                    0.56437,
                    -3.18245,
                    -1.05827
                ],
                [
                    -0.645,
                    -1.26613,
                    -3.1618
                ]
            ],
            [
                [
                    -2.28899,
                    0.68202,
                    -0.82189
                ],
                [
                    0.56445,
                    -3.18214,
                    -1.05739
                ],
                [
                    -0.64468,
                    -1.26597,
                    -3.16162
                ]
            ]
        ]
    },
    "band_gap": 2.6689999999999996,
    "is_direct": false,
    "formula": "KBi(WO4)2"
}