{
    "mp_id": "mp-27539",
    "nelements": 3,
    "nsites": 16,
    "elements": [
        "La",
        "O",
        "Re"
    ],
    "structure": {
        "@module": "pymatgen.core.structure",
        "@class": "Structure",
        "charge": null,
        "lattice": {
            "matrix": [
                [
                    -4.44600955,
                    4.44600955,
                    2.99163329
                ],
                [
                    4.44600955,
                    -4.44600955,
                    2.99163329
                ],
                [
                    4.44600955,
                    4.44600955,
                    -2.99163329
                ]
            ],
            "a": 6.9630360891796785,
            "b": 6.9630360891796785,
            "c": 6.9630360891796785,
            "alpha": 100.63750827344708,
            "beta": 100.63750827344708,
            "gamma": 129.10994026227803,
            "volume": 236.54247196726877
        },
        "sites": [
            {
                "species": [
                    {
                        "element": "La",
                        "occu": 1
                    }
                ],
                "abc": [
                    0.60497639,
                    0.81808778,
                    0.42306417
                ],
                "xyz": [
                    2.828442615236598,
                    0.9334520649290492,
                    2.9916332900000002
                ],
                "label": "La",
                "properties": {}
            },
            {
                "species": [
                    {
                        "element": "La",
                        "occu": 1
                    }
                ],
                "abc": [
                    0.81808778,
                    0.39502361,
                    0.21311239
                ],
                "xyz": [
                    -0.933447618919499,
                    2.8284470612461483,
                    2.99163029836671
                ],
                "label": "La",
                "properties": {}
            },
            {
                "species": [
                    {
                        "element": "La",
                        "occu": 1
                    }
                ],
                "abc": [
                    0.18191222,
                    0.60497639,
                    0.78688761
                ],
                "xyz": [
                    5.379457168919499,
                    1.6175624887538518,
                    2.9916332899837528e-06
                ],
                "label": "La",
                "properties": {}
            },
            {
                "species": [
                    {
                        "element": "La",
                        "occu": 1
                    }
                ],
                "abc": [
                    0.39502361,
                    0.18191222,
                    0.57693583
                ],
                "xyz": [
                    1.617566934763402,
                    3.5125574850709516,
                    0.0
                ],
                "label": "La",
                "properties": {}
            },
            {
                "species": [
                    {
                        "element": "Re",
                        "occu": 1
                    }
                ],
                "abc": [
                    0.81117051,
                    0.81117051,
                    0.0
                ],
                "xyz": [
                    0.0,
                    0.0,
                    4.853449403164555
                ],
                "label": "Re",
                "properties": {}
            },
            {
                "species": [
                    {
                        "element": "Re",
                        "occu": 1
                    }
                ],
                "abc": [
                    0.18882949,
                    0.18882949,
                    0.0
                ],
                "xyz": [
                    0.0,
                    0.0,
                    1.1298171768354441
                ],
                "label": "Re",
                "properties": {}
            },
            {
                "species": [
                    {
                        "element": "O",
                        "occu": 1
                    }
                ],
                "abc": [
                    0.92943648,
                    0.83588621,
                    0.28445824
                ],
                "xyz": [
                    0.8487786577911136,
                    1.6806294454412705,
                    4.430203386597539
                ],
                "label": "O",
                "properties": {}
            },
            {
                "species": [
                    {
                        "element": "O",
                        "occu": 1
                    }
                ],
                "abc": [
                    0.83588621,
                    0.55142797,
                    0.90644973
                ],
                "xyz": [
                    2.7653801045587296,
                    5.294788207791113,
                    1.4385700965975405
                ],
                "label": "O",
                "properties": {}
            },
            {
                "species": [
                    {
                        "element": "O",
                        "occu": 1
                    }
                ],
                "abc": [
                    0.64497824,
                    0.92943648,
                    0.09355027
                ],
                "xyz": [
                    1.6806294454412702,
                    -0.8487786577911133,
                    4.43020338659754
                ],
                "label": "O",
                "properties": {}
            },
            {
                "species": [
                    {
                        "element": "O",
                        "occu": 1
                    }
                ],
                "abc": [
                    0.55142797,
                    0.64497824,
                    0.71554176
                ],
                "xyz": [
                    3.597230892208887,
                    2.76538010455873,
                    1.43857009659754
                ],
                "label": "O",
                "properties": {}
            },
            {
                "species": [
                    {
                        "element": "O",
                        "occu": 1
                    }
                ],
                "abc": [
                    0.07056352,
                    0.16411379,
                    0.71554176
                ],
                "xyz": [
                    3.597230892208887,
                    2.76538010455873,
                    -1.4385700965975405
                ],
                "label": "O",
                "properties": {}
            },
            {
                "species": [
                    {
                        "element": "O",
                        "occu": 1
                    }
                ],
                "abc": [
                    0.16411379,
                    0.44857203,
                    0.09355027
                ],
                "xyz": [
                    1.6806294454412707,
                    -0.8487786577911137,
                    1.5530631934024595
                ],
                "label": "O",
                "properties": {}
            },
            {
                "species": [
                    {
                        "element": "O",
                        "occu": 1
                    }
                ],
                "abc": [
                    0.25,
                    0.75,
                    0.5
                ],
                "xyz": [
                    4.446009550000001,
                    -4.440892098500626e-16,
                    1.495816645
                ],
                "label": "O",
                "properties": {}
            },
            {
                "species": [
                    {
                        "element": "O",
                        "occu": 1
                    }
                ],
                "abc": [
                    0.75,
                    0.25,
                    0.5
                ],
                "xyz": [
                    -4.440892098500626e-16,
                    4.446009550000001,
                    1.495816645
                ],
                "label": "O",
                "properties": {}
            },
            {
                "species": [
                    {
                        "element": "O",
                        "occu": 1
                    }
                ],
                "abc": [
                    0.44857203,
                    0.35502176,
                    0.28445824
                ],
                "xyz": [
                    0.8487786577911136,
                    1.6806294454412705,
                    1.5530631934024597
                ],
                "label": "O",
                "properties": {}
            },
            {
                "species": [
                    {
                        "element": "O",
                        "occu": 1
                    }
                ],
                "abc": [
                    0.35502176,
                    0.07056352,
                    0.90644973
                ],
                "xyz": [
                    2.765380104558729,
                    5.294788207791114,
                    -1.43857009659754
                ],
                "label": "O",
                "properties": {}
            }
        ]
    },
    "spacegroup": {
        "source": "spglib",
        "symbol": "I4/m",
        "number": 87,
        "point_group": "4/m",
        "crystal_system": "tetragonal",
        "hall": "-I 4"
    },
    "dielectric": {
        "epsilon_ionic": [
            [
                16.1686917,
                -0.00202891,
                0.0
            ],
            [
                -0.00202891,
                16.16699204,
                -0.0
            ],
            [
                0.0,
                -0.0,
                11.23177489
            ]
        ],
        "epsilon_ionic_avg": 14.522486210000002,
        "epsilon_ionic_eig": [
            16.170041571529072,
            16.165642168470928,
            11.23177489
        ],
        "epsilon_electronic": [
            [
                5.26571778,
                -0.00011973,
                0.0
            ],
            [
                0.00011973,
                5.26571778,
                0.0
            ],
            [
                0.0,
                0.0,
                5.57945442
            ]
        ],
        "epsilon_electronic_avg": 5.37029666,
        "epsilon_electronic_eig": [
            5.26571778,
            5.26571778,
            5.57945442
        ]
    },
    "phonon": {
        "lowest_freq": -0.05569686905400327,
        "frequency": [
            -0.05569686905400327,
            -0.05569686905400327,
            -0.036616313403268874,
            3.1079900368330913,
            3.1681306319756954,
            3.1681306319756954,
            3.2151496554743755,
            3.2151496554743755,
            3.3816268753556646,
            3.907755940433894,
            4.397608605223045,
            4.397608605223045,
            4.549306851040768,
            4.666229300844598,
            4.713403569595699,
            4.713403569595699,
            6.087517105702195,
            6.467375280152752,
            7.035698117186929,
            7.035698117186929,
            7.145098978966604,
            7.450008708871784,
            8.531475073644883,
            8.531475073644883,
            8.589576707448666,
            8.839826901189987,
            8.988847003775327,
            8.988847003775327,
            9.66768590755888,
            9.842433599356832,
            9.988032620589347,
            9.988032620589347,
            11.330867383187721,
            11.330867383187721,
            11.477741213705883,
            12.511412511184913,
            12.91316591587477,
            13.008911357171,
            13.008911357171,
            13.89440465680713,
            14.5382531224321,
            17.01492062747155,
            17.01492062747155,
            17.59022836170043,
            17.59022836170043,
            18.470995663476195,
            18.806009082620015,
            22.636891252033518
        ]
    },
    "born_effective_charge": {
        "avg_abs_trace": 3.1180658333333335,
        "tensors": [
            [
                [
                    4.93986,
                    -0.46556,
                    -0.0
                ],
                [
                    -0.47041,
                    3.96023,
                    0.0
                ],
                [
                    3e-05,
                    5e-05,
                    4.4553
                ]
            ],
            [
                [
                    3.96011,
                    0.4705,
                    0.0
                ],
                [
                    0.46447,
                    4.94005,
                    0.0
                ],
                [
                    5e-05,
                    -3e-05,
                    4.4553
                ]
            ],
            [
                [
                    3.96018,
                    0.47087,
                    0.0
                ],
                [
                    0.46433,
                    4.93961,
                    0.0
                ],
                [
                    -5e-05,
                    3e-05,
                    4.4553
                ]
            ],
            [
                [
                    4.94011,
                    -0.46535,
                    0.0
                ],
                [
                    -0.47059,
                    3.9604,
                    0.0
                ],
                [
                    -3e-05,
                    -5e-05,
                    4.4553
                ]
            ],
            [
                [
                    5.24028,
                    0.07042,
                    -0.00016
                ],
                [
                    -0.07119,
                    5.23942,
                    0.00018
                ],
                [
                    -0.0,
                    -0.0,
                    0.2257
                ]
            ],
            [
                [
                    5.24028,
                    0.07042,
                    0.00016
                ],
                [
                    -0.07119,
                    5.23942,
                    -0.00018
                ],
                [
                    -0.0,
                    -0.0,
                    0.22673
                ]
            ],
            [
                [
                    -2.33245,
                    0.63333,
                    -0.16061
                ],
                [
                    0.70207,
                    -3.34742,
                    0.35381
                ],
                [
                    -0.59561,
                    0.99163,
                    -1.52638
                ]
            ],
            [
                [
                    -3.34745,
                    -0.70133,
                    0.3535
                ],
                [
                    -0.6329,
                    -2.3323,
                    0.16075
                ],
                [
                    0.99163,
                    0.59561,
                    -1.52638
                ]
            ],
            [
                [
                    -3.34765,
                    -0.70133,
                    -0.35328
                ],
                [
                    -0.63287,
                    -2.33243,
                    -0.16078
                ],
                [
                    -0.99163,
                    -0.59561,
                    -1.52638
                ]
            ],
            [
                [
                    -2.33234,
                    0.63329,
                    0.16069
                ],
                [
                    0.70185,
                    -3.34736,
                    -0.35385
                ],
                [
                    0.59561,
                    -0.99163,
                    -1.52638
                ]
            ],
            [
                [
                    -2.33234,
                    0.63329,
                    -0.16069
                ],
                [
                    0.70185,
                    -3.34736,
                    0.35385
                ],
                [
                    -0.5956,
                    0.9914,
                    -1.52642
                ]
            ],
            [
                [
                    -3.34765,
                    -0.70133,
                    0.35328
                ],
                [
                    -0.63287,
                    -2.33243,
                    0.16078
                ],
                [
                    0.9914,
                    0.5956,
                    -1.52642
                ]
            ],
            [
                [
                    -2.78052,
                    0.06039,
                    5e-05
                ],
                [
                    -0.06087,
                    -2.78005,
                    5e-05
                ],
                [
                    -0.0,
                    -0.0,
                    -3.03122
                ]
            ],
            [
                [
                    -2.78052,
                    0.06039,
                    -5e-05
                ],
                [
                    -0.06087,
                    -2.78005,
                    -5e-05
                ],
                [
                    -0.0,
                    -0.0,
                    -3.03122
                ]
            ],
            [
                [
                    -2.33245,
                    0.63333,
                    0.16061
                ],
                [
                    0.70207,
                    -3.34742,
                    -0.35381
                ],
                [
                    0.5956,
                    -0.9914,
                    -1.52642
                ]
            ],
            [
                [
                    -3.34745,
                    -0.70133,
                    -0.3535
                ],
                [
                    -0.6329,
                    -2.3323,
                    -0.16075
                ],
                [
                    -0.9914,
                    -0.5956,
                    -1.52642
                ]
            ]
        ]
    },
    "band_gap": 1.1479,
    "is_direct": false,
    "formula": "La2ReO5"
}