{
    "mp_id": "mp-29455",
    "nelements": 3,
    "nsites": 13,
    "elements": [
        "Ga",
        "Ge",
        "O"
    ],
    "structure": {
        "@module": "pymatgen.core.structure",
        "@class": "Structure",
        "charge": null,
        "lattice": {
            "matrix": [
                [
                    6.1182754,
                    -1.51007745,
                    0.00022593
                ],
                [
                    6.1182754,
                    1.51007745,
                    0.00022593
                ],
                [
                    -5.38293442,
                    0.0,
                    7.73550855
                ]
            ],
            "a": 6.301874945306993,
            "b": 6.301874945306993,
            "c": 9.424122001393224,
            "alpha": 123.6774110518621,
            "beta": 123.6774110518621,
            "gamma": 27.728642431837848,
            "volume": 142.94147855086663
        },
        "sites": [
            {
                "species": [
                    {
                        "element": "Ga",
                        "occu": 1
                    }
                ],
                "abc": [
                    0.46361506,
                    0.46361506,
                    0.28451509
                ],
                "xyz": [
                    4.14152316236465,
                    0.0,
                    2.201078400400031
                ],
                "label": "Ga",
                "properties": {}
            },
            {
                "species": [
                    {
                        "element": "Ga",
                        "occu": 1
                    }
                ],
                "abc": [
                    0.53638494,
                    0.53638494,
                    0.71548491
                ],
                "xyz": [
                    2.7120932176353496,
                    0.0,
                    5.5348820095999685
                ],
                "label": "Ga",
                "properties": {}
            },
            {
                "species": [
                    {
                        "element": "Ga",
                        "occu": 1
                    }
                ],
                "abc": [
                    0.75844989,
                    0.75844989,
                    0.36085912
                ],
                "xyz": [
                    7.3383296304205015,
                    0.0,
                    2.791771521272771
                ],
                "label": "Ga",
                "properties": {}
            },
            {
                "species": [
                    {
                        "element": "Ga",
                        "occu": 1
                    }
                ],
                "abc": [
                    0.24155011,
                    0.24155011,
                    0.63914088
                ],
                "xyz": [
                    -0.4847132504205014,
                    0.0,
                    4.944188888727228
                ],
                "label": "Ga",
                "properties": {}
            },
            {
                "species": [
                    {
                        "element": "Ge",
                        "occu": 1
                    }
                ],
                "abc": [
                    0.0,
                    0.0,
                    0.0
                ],
                "xyz": [
                    0.0,
                    0.0,
                    0.0
                ],
                "label": "Ge",
                "properties": {}
            },
            {
                "species": [
                    {
                        "element": "O",
                        "occu": 1
                    }
                ],
                "abc": [
                    0.89021868,
                    0.89021868,
                    0.30570296
                ],
                "xyz": [
                    9.247627115249061,
                    0.0,
                    2.365170115053053
                ],
                "label": "O",
                "properties": {}
            },
            {
                "species": [
                    {
                        "element": "O",
                        "occu": 1
                    }
                ],
                "abc": [
                    0.10978132,
                    0.10978132,
                    0.69429704
                ],
                "xyz": [
                    -2.3940107352490605,
                    0.0,
                    5.370790294946946
                ],
                "label": "O",
                "properties": {}
            },
            {
                "species": [
                    {
                        "element": "O",
                        "occu": 1
                    }
                ],
                "abc": [
                    0.43997177,
                    0.43997177,
                    0.07225567
                ],
                "xyz": [
                    4.994789381087754,
                    0.0,
                    0.5591331587149706
                ],
                "label": "O",
                "properties": {}
            },
            {
                "species": [
                    {
                        "element": "O",
                        "occu": 1
                    }
                ],
                "abc": [
                    0.56002823,
                    0.56002823,
                    0.92774433
                ],
                "xyz": [
                    1.858826998912246,
                    0.0,
                    7.176827251285029
                ],
                "label": "O",
                "properties": {}
            },
            {
                "species": [
                    {
                        "element": "O",
                        "occu": 1
                    }
                ],
                "abc": [
                    0.64619384,
                    0.64619384,
                    0.46289184
                ],
                "xyz": [
                    5.415467331533939,
                    0.0,
                    3.580995775193774
                ],
                "label": "O",
                "properties": {}
            },
            {
                "species": [
                    {
                        "element": "O",
                        "occu": 1
                    }
                ],
                "abc": [
                    0.83873878,
                    0.83873878,
                    0.78292457
                ],
                "xyz": [
                    6.048838073283325,
                    0.0,
                    6.056698697745205
                ],
                "label": "O",
                "properties": {}
            },
            {
                "species": [
                    {
                        "element": "O",
                        "occu": 1
                    }
                ],
                "abc": [
                    0.16126122,
                    0.16126122,
                    0.21707543
                ],
                "xyz": [
                    0.8047783067166756,
                    0.0,
                    1.6792617122547957
                ],
                "label": "O",
                "properties": {}
            },
            {
                "species": [
                    {
                        "element": "O",
                        "occu": 1
                    }
                ],
                "abc": [
                    0.35380616,
                    0.35380616,
                    0.53710816
                ],
                "xyz": [
                    1.4381490484660606,
                    0.0,
                    4.154964634806225
                ],
                "label": "O",
                "properties": {}
            }
        ]
    },
    "spacegroup": {
        "source": "spglib",
        "symbol": "C2/m",
        "number": 12,
        "point_group": "2/m",
        "crystal_system": "monoclinic",
        "hall": "-C 2y"
    },
    "dielectric": {
        "epsilon_ionic": [
            [
                6.67233478,
                -0.0,
                -0.47798137
            ],
            [
                -0.0,
                6.44893717,
                -0.0
            ],
            [
                -0.47798137,
                -0.0,
                6.64257809
            ]
        ],
        "epsilon_ionic_avg": 6.587950013333334,
        "epsilon_ionic_eig": [
            7.13566931146509,
            6.1792435585349095,
            6.44893717
        ],
        "epsilon_electronic": [
            [
                3.78609937,
                0.0,
                -0.06611711
            ],
            [
                0.0,
                4.05047677,
                0.0
            ],
            [
                -0.06611893,
                0.0,
                3.9287522
            ]
        ],
        "epsilon_electronic_avg": 3.9217761133333333,
        "epsilon_electronic_eig": [
            3.7601681372562648,
            3.9546834327437352,
            4.05047677
        ]
    },
    "phonon": {
        "lowest_freq": -0.032437225072092186,
        "frequency": [
            -0.032437225072092186,
            -0.011232558372792177,
            -0.009803539565506777,
            3.1855971544844675,
            3.966744393380811,
            4.160683413475984,
            4.336531837032198,
            4.374257605220106,
            4.7068039722476795,
            4.857746105956469,
            6.1603641564763345,
            6.331251841072796,
            6.4088605333532165,
            7.006470304103794,
            8.22616381544873,
            8.229347542495091,
            9.173136630069582,
            9.548342342082908,
            9.55293497880031,
            10.661152552748636,
            10.798739143858416,
            11.959296623741592,
            12.146150889871201,
            12.23004350365049,
            12.321244061085213,
            12.997978119178093,
            13.21762687343867,
            16.00517462728695,
            16.469959519031587,
            16.810066490798594,
            17.829321863902972,
            18.750786273655905,
            18.824175139197465,
            19.850876507789998,
            19.925511460735855,
            20.795287924948568,
            21.8401684441575,
            22.403353108410666,
            23.70321053333952
        ]
    },
    "born_effective_charge": {
        "avg_abs_trace": 2.4945646153846157,
        "tensors": [
            [
                [
                    2.88557,
                    0.0,
                    -0.27164
                ],
                [
                    2e-05,
                    2.85015,
                    -7e-05
                ],
                [
                    -0.05313,
                    0.0,
                    2.74281
                ]
            ],
            [
                [
                    2.88533,
                    0.0,
                    -0.27147
                ],
                [
                    -2e-05,
                    2.85015,
                    7e-05
                ],
                [
                    -0.05322,
                    0.0,
                    2.74289
                ]
            ],
            [
                [
                    3.37789,
                    0.0,
                    -0.09984
                ],
                [
                    -1e-05,
                    3.40706,
                    -1e-05
                ],
                [
                    -0.04335,
                    0.0,
                    3.03906
                ]
            ],
            [
                [
                    3.37793,
                    0.0,
                    -0.09992
                ],
                [
                    1e-05,
                    3.40706,
                    1e-05
                ],
                [
                    -0.04331,
                    0.0,
                    3.03898
                ]
            ],
            [
                [
                    2.86491,
                    0.0,
                    0.51681
                ],
                [
                    0.0,
                    4.63894,
                    0.0
                ],
                [
                    -0.25178,
                    0.0,
                    4.53527
                ]
            ],
            [
                [
                    -2.49535,
                    0.0,
                    0.34605
                ],
                [
                    -0.0001,
                    -2.22543,
                    2e-05
                ],
                [
                    0.2255,
                    0.0,
                    -1.18654
                ]
            ],
            [
                [
                    -2.49525,
                    0.0,
                    0.34604
                ],
                [
                    0.0001,
                    -2.22543,
                    -2e-05
                ],
                [
                    0.22551,
                    0.0,
                    -1.18659
                ]
            ],
            [
                [
                    -1.6438,
                    0.0,
                    0.46855
                ],
                [
                    -3e-05,
                    -2.25776,
                    3e-05
                ],
                [
                    0.71862,
                    0.0,
                    -2.1259
                ]
            ],
            [
                [
                    -1.64381,
                    0.0,
                    0.46838
                ],
                [
                    3e-05,
                    -2.25776,
                    -3e-05
                ],
                [
                    0.71864,
                    0.0,
                    -2.12597
                ]
            ],
            [
                [
                    -2.07972,
                    0.0,
                    -0.1619
                ],
                [
                    8e-05,
                    -1.96341,
                    -5e-05
                ],
                [
                    -0.21719,
                    0.0,
                    -2.26075
                ]
            ],
            [
                [
                    -1.47704,
                    0.0,
                    -0.5396
                ],
                [
                    9e-05,
                    -2.13009,
                    0.00014
                ],
                [
                    -0.50454,
                    0.0,
                    -2.47628
                ]
            ],
            [
                [
                    -1.47694,
                    0.0,
                    -0.53952
                ],
                [
                    -9e-05,
                    -2.13009,
                    -0.00014
                ],
                [
                    -0.50454,
                    0.0,
                    -2.47621
                ]
            ],
            [
                [
                    -2.07972,
                    0.0,
                    -0.16195
                ],
                [
                    -8e-05,
                    -1.96341,
                    5e-05
                ],
                [
                    -0.21722,
                    0.0,
                    -2.26077
                ]
            ]
        ]
    },
    "band_gap": 2.2359,
    "is_direct": false,
    "formula": "Ga4GeO8"
}