{
    "mp_id": "mp-23642",
    "nelements": 4,
    "nsites": 16,
    "elements": [
        "Bi",
        "O",
        "Pb",
        "V"
    ],
    "structure": {
        "@module": "pymatgen.core.structure",
        "@class": "Structure",
        "charge": null,
        "lattice": {
            "matrix": [
                [
                    5.67100492,
                    0.00219437,
                    -0.00120339
                ],
                [
                    -0.86272336,
                    7.10324022,
                    -0.00073536
                ],
                [
                    -2.80326518,
                    -2.37119364,
                    6.18044808
                ]
            ],
            "a": 5.6710054722307754,
            "b": 7.1554394525891745,
            "c": 7.188796381686754,
            "alpha": 106.29077010062974,
            "beta": 112.9706285308178,
            "gamma": 96.9027639441375,
            "volume": 248.9393555835841
        },
        "sites": [
            {
                "species": [
                    {
                        "element": "V",
                        "occu": 1
                    }
                ],
                "abc": [
                    0.15345751,
                    0.15115461,
                    0.84959962
                ],
                "xyz": [
                    -1.641799350484972,
                    -0.9405409677437839,
                    5.2506105179107605
                ],
                "label": "V",
                "properties": {}
            },
            {
                "species": [
                    {
                        "element": "V",
                        "occu": 1
                    }
                ],
                "abc": [
                    0.84654249,
                    0.84884539,
                    0.15040038
                ],
                "xyz": [
                    3.6468157304849718,
                    5.674781917743784,
                    0.9278988120892389
                ],
                "label": "V",
                "properties": {}
            },
            {
                "species": [
                    {
                        "element": "Bi",
                        "occu": 1
                    }
                ],
                "abc": [
                    0.57613949,
                    0.75432302,
                    0.52494097
                ],
                "xyz": [
                    1.144969049300119,
                    4.114665188309105,
                    3.243122390672979
                ],
                "label": "Bi",
                "properties": {}
            },
            {
                "species": [
                    {
                        "element": "Bi",
                        "occu": 1
                    }
                ],
                "abc": [
                    0.42386051,
                    0.24567698,
                    0.47505903
                ],
                "xyz": [
                    0.860047330699881,
                    0.6195757616908948,
                    2.9353869393270204
                ],
                "label": "Bi",
                "properties": {}
            },
            {
                "species": [
                    {
                        "element": "Pb",
                        "occu": 1
                    }
                ],
                "abc": [
                    0.81053821,
                    0.38453928,
                    0.18599647
                ],
                "xyz": [
                    3.743417729110498,
                    2.2922198538712686,
                    1.1482833575168048
                ],
                "label": "Pb",
                "properties": {}
            },
            {
                "species": [
                    {
                        "element": "Pb",
                        "occu": 1
                    }
                ],
                "abc": [
                    0.18946179,
                    0.61546072,
                    0.81400353
                ],
                "xyz": [
                    -1.738401349110498,
                    2.442021096128731,
                    5.030225972483195
                ],
                "label": "Pb",
                "properties": {}
            },
            {
                "species": [
                    {
                        "element": "O",
                        "occu": 1
                    }
                ],
                "abc": [
                    0.25643424,
                    0.50244331,
                    0.48143314
                ],
                "xyz": [
                    -0.328814501776326,
                    2.427967039811927,
                    2.9747944586488555
                ],
                "label": "O",
                "properties": {}
            },
            {
                "species": [
                    {
                        "element": "O",
                        "occu": 1
                    }
                ],
                "abc": [
                    0.63702837,
                    0.70349062,
                    0.21231469
                ],
                "xyz": [
                    2.410498851355203,
                    4.495021499714442,
                    1.3109160057337976
                ],
                "label": "O",
                "properties": {}
            },
            {
                "species": [
                    {
                        "element": "O",
                        "occu": 1
                    }
                ],
                "abc": [
                    0.65470548,
                    0.80964889,
                    0.87956436
                ],
                "xyz": [
                    0.5486828434729056,
                    3.666949809187833,
                    5.434718610563102
                ],
                "label": "O",
                "properties": {}
            },
            {
                "species": [
                    {
                        "element": "O",
                        "occu": 1
                    }
                ],
                "abc": [
                    0.95241405,
                    0.10463421,
                    0.3083537
                ],
                "xyz": [
                    4.4464771958708145,
                    0.01416554536835668,
                    1.904540963769601
                ],
                "label": "O",
                "properties": {}
            },
            {
                "species": [
                    {
                        "element": "O",
                        "occu": 1
                    }
                ],
                "abc": [
                    0.74356576,
                    0.49755669,
                    0.51856686
                ],
                "xyz": [
                    2.3338308817763256,
                    2.3062739101880725,
                    3.203714871351144
                ],
                "label": "O",
                "properties": {}
            },
            {
                "species": [
                    {
                        "element": "O",
                        "occu": 1
                    }
                ],
                "abc": [
                    0.04758595,
                    0.89536579,
                    0.6916463
                ],
                "xyz": [
                    -2.4414608158708146,
                    4.720075404631643,
                    4.2739683662304
                ],
                "label": "O",
                "properties": {}
            },
            {
                "species": [
                    {
                        "element": "O",
                        "occu": 1
                    }
                ],
                "abc": [
                    0.88595031,
                    0.24617198,
                    0.81459823
                ],
                "xyz": [
                    2.5283153953134407,
                    -0.18100732997646696,
                    5.033334897804134
                ],
                "label": "O",
                "properties": {}
            },
            {
                "species": [
                    {
                        "element": "O",
                        "occu": 1
                    }
                ],
                "abc": [
                    0.11404969,
                    0.75382802,
                    0.18540177
                ],
                "xyz": [
                    -0.5232990153134411,
                    4.915248279976467,
                    1.1451744321958652
                ],
                "label": "O",
                "properties": {}
            },
            {
                "species": [
                    {
                        "element": "O",
                        "occu": 1
                    }
                ],
                "abc": [
                    0.36297163,
                    0.29650938,
                    0.78768531
                ],
                "xyz": [
                    -0.405482471355203,
                    0.23921945028555824,
                    4.867593324266202
                ],
                "label": "O",
                "properties": {}
            },
            {
                "species": [
                    {
                        "element": "O",
                        "occu": 1
                    }
                ],
                "abc": [
                    0.34529452,
                    0.19035111,
                    0.12043564
                ],
                "xyz": [
                    1.4563335365270935,
                    1.067291140812167,
                    0.7437907194368988
                ],
                "label": "O",
                "properties": {}
            }
        ]
    },
    "spacegroup": {
        "source": "spglib",
        "symbol": "P-1",
        "number": 2,
        "point_group": "-1",
        "crystal_system": "triclinic",
        "hall": "-P 1"
    },
    "dielectric": {
        "epsilon_ionic": [
            [
                18.99310573,
                3.64683316,
                2.23529931
            ],
            [
                3.64683316,
                15.25067676,
                -0.96319039
            ],
            [
                2.23529931,
                -0.96319039,
                19.11718525
            ]
        ],
        "epsilon_ionic_avg": 17.786989246666657,
        "epsilon_ionic_eig": [
            12.413539430181238,
            22.02185120832931,
            18.925577101489424
        ],
        "epsilon_electronic": [
            [
                5.31548561,
                0.24624048,
                0.22201929
            ],
            [
                0.24624486,
                5.57373843,
                0.00341057
            ],
            [
                0.22202312,
                0.00340964,
                5.46375991
            ]
        ],
        "epsilon_electronic_avg": 5.450994650000005,
        "epsilon_electronic_eig": [
            5.071157326037451,
            5.777034750249383,
            5.504791873713179
        ]
    },
    "phonon": {
        "lowest_freq": -0.050199175382434326,
        "frequency": [
            -0.050199175382434326,
            -0.02932542360417081,
            -0.02249752288750595,
            1.2276709231164282,
            1.6531093224811626,
            2.007553585274755,
            2.2669097313237234,
            2.3192488212794893,
            2.3584983333075713,
            2.4028472647098558,
            2.540750193804814,
            2.769741517816931,
            2.8106070643735896,
            3.2607903648646737,
            3.3182646926981834,
            3.334517557871188,
            3.8186147538755426,
            4.405292753062601,
            4.568337229276158,
            4.914606732186798,
            5.266394855773137,
            5.324909823666193,
            6.211261923361913,
            6.336254945909912,
            7.67756436738601,
            7.798516579653382,
            8.488324847253718,
            8.665875141560196,
            9.002823993753589,
            9.6000058265181,
            9.68854901121772,
            9.84972540680007,
            10.275065287283203,
            10.329863934762356,
            10.766974195433525,
            11.513725428882225,
            11.522737560949988,
            13.234082559766474,
            14.24488455735643,
            15.255862540395134,
            21.331375916840614,
            21.38178904983119,
            22.45834677456896,
            23.267478233666125,
            23.53634856295909,
            23.79181881527476,
            24.79977163758174,
            24.87180956746729
        ]
    },
    "born_effective_charge": {
        "avg_abs_trace": 2.9784154166666665,
        "tensors": [
            [
                [
                    3.1542,
                    0.43076,
                    0.48307
                ],
                [
                    0.18946,
                    4.32027,
                    0.7406
                ],
                [
                    0.07918,
                    -0.42808,
                    3.73153
                ]
            ],
            [
                [
                    3.15459,
                    0.43122,
                    0.48327
                ],
                [
                    0.18988,
                    4.32075,
                    0.74076
                ],
                [
                    0.07852,
                    -0.42909,
                    3.73035
                ]
            ],
            [
                [
                    4.60861,
                    0.7551,
                    -0.15689
                ],
                [
                    1.15213,
                    4.30982,
                    -0.63657
                ],
                [
                    -0.17788,
                    -0.07569,
                    5.19966
                ]
            ],
            [
                [
                    4.60859,
                    0.75461,
                    -0.15688
                ],
                [
                    1.15208,
                    4.30969,
                    -0.63665
                ],
                [
                    -0.17789,
                    -0.07497,
                    5.19986
                ]
            ],
            [
                [
                    3.57569,
                    -0.21907,
                    0.20482
                ],
                [
                    -0.50232,
                    3.47655,
                    -0.0215
                ],
                [
                    0.39181,
                    0.11949,
                    3.36488
                ]
            ],
            [
                [
                    3.57573,
                    -0.21912,
                    0.20495
                ],
                [
                    -0.50219,
                    3.47655,
                    -0.02138
                ],
                [
                    0.39151,
                    0.11948,
                    3.36465
                ]
            ],
            [
                [
                    -2.94927,
                    -0.34418,
                    -0.21598
                ],
                [
                    -0.13787,
                    -2.96295,
                    -0.27142
                ],
                [
                    -0.2605,
                    -0.48176,
                    -2.18492
                ]
            ],
            [
                [
                    -2.60127,
                    -1.07602,
                    0.98599
                ],
                [
                    -1.24351,
                    -2.72156,
                    0.85681
                ],
                [
                    1.24144,
                    0.87627,
                    -2.14923
                ]
            ],
            [
                [
                    -1.33502,
                    -0.31976,
                    -0.37106
                ],
                [
                    -0.36478,
                    -0.96168,
                    0.62622
                ],
                [
                    -0.30819,
                    0.84568,
                    -4.86769
                ]
            ],
            [
                [
                    -1.47538,
                    -0.22283,
                    -0.63079
                ],
                [
                    -0.18077,
                    -3.97864,
                    -1.49012
                ],
                [
                    -0.50297,
                    -1.27177,
                    -1.7951
                ]
            ],
            [
                [
                    -2.94914,
                    -0.34444,
                    -0.21598
                ],
                [
                    -0.13784,
                    -2.96296,
                    -0.2715
                ],
                [
                    -0.26037,
                    -0.48136,
                    -2.18499
                ]
            ],
            [
                [
                    -1.47529,
                    -0.22276,
                    -0.631
                ],
                [
                    -0.18065,
                    -3.97867,
                    -1.4901
                ],
                [
                    -0.50319,
                    -1.27203,
                    -1.79522
                ]
            ],
            [
                [
                    -2.97827,
                    0.99575,
                    -0.29925
                ],
                [
                    1.08688,
                    -1.48219,
                    0.19575
                ],
                [
                    -0.46147,
                    0.4164,
                    -1.29761
                ]
            ],
            [
                [
                    -2.97815,
                    0.9956,
                    -0.29914
                ],
                [
                    1.08717,
                    -1.48234,
                    0.19592
                ],
                [
                    -0.4618,
                    0.41665,
                    -1.29784
                ]
            ],
            [
                [
                    -2.60115,
                    -1.07567,
                    0.98623
                ],
                [
                    -1.24339,
                    -2.72126,
                    0.85717
                ],
                [
                    1.24116,
                    0.87583,
                    -2.15035
                ]
            ],
            [
                [
                    -1.33447,
                    -0.31918,
                    -0.37135
                ],
                [
                    -0.36429,
                    -0.96138,
                    0.62602
                ],
                [
                    -0.30938,
                    0.84494,
                    -4.86798
                ]
            ]
        ]
    },
    "band_gap": 2.7437,
    "is_direct": false,
    "formula": "VBiPbO5"
}