{
    "mp_id": "mp-230",
    "nelements": 2,
    "nsites": 24,
    "elements": [
        "O",
        "Sb"
    ],
    "structure": {
        "@module": "pymatgen.core.structure",
        "@class": "Structure",
        "charge": null,
        "lattice": {
            "matrix": [
                [
                    5.4692743,
                    0.0,
                    0.0
                ],
                [
                    0.0,
                    4.84043123,
                    0.0
                ],
                [
                    0.0,
                    0.0,
                    11.77645967
                ]
            ],
            "a": 5.4692743,
            "b": 4.84043123,
            "c": 11.77645967,
            "alpha": 90.0,
            "beta": 90.0,
            "gamma": 90.0,
            "volume": 311.7658259343089
        },
        "sites": [
            {
                "species": [
                    {
                        "element": "Sb",
                        "occu": 1
                    }
                ],
                "abc": [
                    0.0249853,
                    0.03100199,
                    0.496619
                ],
                "xyz": [
                    0.13665145916779,
                    0.1500630005881477,
                    5.84841362485573
                ],
                "label": "Sb",
                "properties": {}
            },
            {
                "species": [
                    {
                        "element": "Sb",
                        "occu": 1
                    }
                ],
                "abc": [
                    0.37091207,
                    0.00169074,
                    0.7486931
                ],
                "xyz": [
                    2.028619852010801,
                    0.008183910697810201,
                    8.816954097357277
                ],
                "label": "Sb",
                "properties": {}
            },
            {
                "species": [
                    {
                        "element": "Sb",
                        "occu": 1
                    }
                ],
                "abc": [
                    0.12908793,
                    0.50169074,
                    0.2486931
                ],
                "xyz": [
                    0.706017297989199,
                    2.4283995256978104,
                    2.9287242623572767
                ],
                "label": "Sb",
                "properties": {}
            },
            {
                "species": [
                    {
                        "element": "Sb",
                        "occu": 1
                    }
                ],
                "abc": [
                    0.9750147,
                    0.96899801,
                    0.996619
                ],
                "xyz": [
                    5.332622840832211,
                    4.6903682294118525,
                    11.73664345985573
                ],
                "label": "Sb",
                "properties": {}
            },
            {
                "species": [
                    {
                        "element": "Sb",
                        "occu": 1
                    }
                ],
                "abc": [
                    0.4750147,
                    0.53100199,
                    0.996619
                ],
                "xyz": [
                    2.59798569083221,
                    2.570278615588148,
                    11.73664345985573
                ],
                "label": "Sb",
                "properties": {}
            },
            {
                "species": [
                    {
                        "element": "Sb",
                        "occu": 1
                    }
                ],
                "abc": [
                    0.5249853,
                    0.46899801,
                    0.496619
                ],
                "xyz": [
                    2.8712886091677903,
                    2.2701526144118525,
                    5.84841362485573
                ],
                "label": "Sb",
                "properties": {}
            },
            {
                "species": [
                    {
                        "element": "Sb",
                        "occu": 1
                    }
                ],
                "abc": [
                    0.87091207,
                    0.49830926,
                    0.7486931
                ],
                "xyz": [
                    4.763257002010802,
                    2.4120317043021897,
                    8.816954097357277
                ],
                "label": "Sb",
                "properties": {}
            },
            {
                "species": [
                    {
                        "element": "Sb",
                        "occu": 1
                    }
                ],
                "abc": [
                    0.62908793,
                    0.99830926,
                    0.2486931
                ],
                "xyz": [
                    3.440654447989199,
                    4.83224731930219,
                    2.9287242623572767
                ],
                "label": "Sb",
                "properties": {}
            },
            {
                "species": [
                    {
                        "element": "O",
                        "occu": 1
                    }
                ],
                "abc": [
                    0.92459575,
                    0.19494567,
                    0.18906382
                ],
                "xyz": [
                    5.0568677733642255,
                    0.9436211092212741,
                    2.226502451286139
                ],
                "label": "O",
                "properties": {}
            },
            {
                "species": [
                    {
                        "element": "O",
                        "occu": 1
                    }
                ],
                "abc": [
                    0.8429825,
                    0.69923119,
                    0.30898646
                ],
                "xyz": [
                    4.6105025225997505,
                    3.384580489066064,
                    3.6387665847660684
                ],
                "label": "O",
                "properties": {}
            },
            {
                "species": [
                    {
                        "element": "O",
                        "occu": 1
                    }
                ],
                "abc": [
                    0.35007154,
                    0.16670923,
                    0.59041955
                ],
                "xyz": [
                    1.9146372768834221,
                    0.806944563221253,
                    6.953052018954549
                ],
                "label": "O",
                "properties": {}
            },
            {
                "species": [
                    {
                        "element": "O",
                        "occu": 1
                    }
                ],
                "abc": [
                    0.31536151,
                    0.8409966,
                    0.90351806
                ],
                "xyz": [
                    1.7247986018521932,
                    4.070786206963818,
                    10.64024399470664
                ],
                "label": "O",
                "properties": {}
            },
            {
                "species": [
                    {
                        "element": "O",
                        "occu": 1
                    }
                ],
                "abc": [
                    0.07540425,
                    0.80505433,
                    0.68906382
                ],
                "xyz": [
                    0.41240652663577504,
                    3.896810120778726,
                    8.11473228628614
                ],
                "label": "O",
                "properties": {}
            },
            {
                "species": [
                    {
                        "element": "O",
                        "occu": 1
                    }
                ],
                "abc": [
                    0.1570175,
                    0.30076881,
                    0.80898646
                ],
                "xyz": [
                    0.8587717774002501,
                    1.4558507409339363,
                    9.526996419766068
                ],
                "label": "O",
                "properties": {}
            },
            {
                "species": [
                    {
                        "element": "O",
                        "occu": 1
                    }
                ],
                "abc": [
                    0.81536151,
                    0.6590034,
                    0.90351806
                ],
                "xyz": [
                    4.459435751852193,
                    3.189860638036182,
                    10.64024399470664
                ],
                "label": "O",
                "properties": {}
            },
            {
                "species": [
                    {
                        "element": "O",
                        "occu": 1
                    }
                ],
                "abc": [
                    0.57540425,
                    0.69494567,
                    0.68906382
                ],
                "xyz": [
                    3.147043676635775,
                    3.363836724221274,
                    8.11473228628614
                ],
                "label": "O",
                "properties": {}
            },
            {
                "species": [
                    {
                        "element": "O",
                        "occu": 1
                    }
                ],
                "abc": [
                    0.85007154,
                    0.33329077,
                    0.59041955
                ],
                "xyz": [
                    4.649274426883422,
                    1.6132710517787472,
                    6.953052018954549
                ],
                "label": "O",
                "properties": {}
            },
            {
                "species": [
                    {
                        "element": "O",
                        "occu": 1
                    }
                ],
                "abc": [
                    0.42459575,
                    0.30505433,
                    0.18906382
                ],
                "xyz": [
                    2.322230623364225,
                    1.4765945057787258,
                    2.226502451286139
                ],
                "label": "O",
                "properties": {}
            },
            {
                "species": [
                    {
                        "element": "O",
                        "occu": 1
                    }
                ],
                "abc": [
                    0.18463849,
                    0.3409966,
                    0.40351806
                ],
                "xyz": [
                    1.009838548147807,
                    1.650570591963818,
                    4.75201415970664
                ],
                "label": "O",
                "properties": {}
            },
            {
                "species": [
                    {
                        "element": "O",
                        "occu": 1
                    }
                ],
                "abc": [
                    0.64992846,
                    0.83329077,
                    0.09041955
                ],
                "xyz": [
                    3.5546370231165785,
                    4.033486666778747,
                    1.0648221839545484
                ],
                "label": "O",
                "properties": {}
            },
            {
                "species": [
                    {
                        "element": "O",
                        "occu": 1
                    }
                ],
                "abc": [
                    0.6570175,
                    0.19923119,
                    0.80898646
                ],
                "xyz": [
                    3.5934089274002505,
                    0.9643648740660637,
                    9.526996419766068
                ],
                "label": "O",
                "properties": {}
            },
            {
                "species": [
                    {
                        "element": "O",
                        "occu": 1
                    }
                ],
                "abc": [
                    0.68463849,
                    0.1590034,
                    0.40351806
                ],
                "xyz": [
                    3.744475698147807,
                    0.769645023036182,
                    4.75201415970664
                ],
                "label": "O",
                "properties": {}
            },
            {
                "species": [
                    {
                        "element": "O",
                        "occu": 1
                    }
                ],
                "abc": [
                    0.14992846,
                    0.66670923,
                    0.09041955
                ],
                "xyz": [
                    0.8199998731165782,
                    3.2271601782212533,
                    1.0648221839545484
                ],
                "label": "O",
                "properties": {}
            },
            {
                "species": [
                    {
                        "element": "O",
                        "occu": 1
                    }
                ],
                "abc": [
                    0.3429825,
                    0.80076881,
                    0.30898646
                ],
                "xyz": [
                    1.8758653725997503,
                    3.8760663559339363,
                    3.6387665847660684
                ],
                "label": "O",
                "properties": {}
            }
        ]
    },
    "spacegroup": {
        "source": "spglib",
        "symbol": "Pna2_1",
        "number": 33,
        "point_group": "mm2",
        "crystal_system": "orthorhombic",
        "hall": "P 2c -2n"
    },
    "dielectric": {
        "epsilon_ionic": [
            [
                14.29374741,
                0.0,
                -1.51e-06
            ],
            [
                0.0,
                8.49608385,
                -7.5e-07
            ],
            [
                -1.51e-06,
                -7.5e-07,
                17.41517483
            ]
        ],
        "epsilon_ionic_avg": 13.401668696666666,
        "epsilon_ionic_eig": [
            14.293747409999273,
            17.415174830000787,
            8.496083849999934
        ],
        "epsilon_electronic": [
            [
                5.54933919,
                0.0,
                0.0
            ],
            [
                0.0,
                5.00014106,
                0.0
            ],
            [
                0.0,
                0.0,
                5.69425577
            ]
        ],
        "epsilon_electronic_avg": 5.414578673333334,
        "epsilon_electronic_eig": [
            5.54933919,
            5.00014106,
            5.69425577
        ]
    },
    "phonon": {
        "lowest_freq": -0.061896002354398016,
        "frequency": [
            -0.061896002354398016,
            -0.05001767710095489,
            -0.020067570875893687,
            1.5837833069600413,
            1.8719442914915503,
            2.3966982676786213,
            2.4089473348804185,
            2.6464001446817287,
            3.055080360380875,
            3.1811501315962007,
            3.2751899621371203,
            3.7189626983343347,
            3.9605310650734635,
            4.147642565876615,
            4.183438958062752,
            5.287568978564964,
            5.310076612681594,
            5.532330927048164,
            5.776433014585657,
            5.813778087298149,
            6.145181593340669,
            6.227608177650807,
            6.319165929208692,
            6.422491214631815,
            6.5525669925598615,
            6.643877867115542,
            6.784265064666811,
            7.254599826256682,
            7.474843071020122,
            7.623266286428649,
            7.632167148799691,
            7.9811427129684835,
            8.161994831798578,
            8.221046664953342,
            8.226825284181638,
            8.611310232512261,
            8.731220048699814,
            8.933753338452243,
            9.82495527817299,
            9.975425251738166,
            10.389795053476334,
            10.80028193303392,
            11.938218581889494,
            12.09827348613571,
            12.190661691476148,
            12.48988869599986,
            12.619190964460342,
            12.661172811656414,
            12.667198931062204,
            13.298823943342846,
            13.531235663661986,
            13.69310187294346,
            13.800578617528545,
            14.537872268043625,
            14.687628402280202,
            15.303698283614906,
            17.237841169390435,
            17.549689351288883,
            17.83753709019863,
            17.910545001078276,
            18.39949403039437,
            18.684691881907263,
            19.087278713607155,
            19.912798372493228,
            20.440228799807176,
            20.848524656619375,
            21.32636183896708,
            21.433642853825294,
            21.534055677679724,
            21.785619432035773,
            23.296336396367348,
            23.34900870173909
        ]
    },
    "born_effective_charge": {
        "avg_abs_trace": 3.1909238888888893,
        "tensors": [
            [
                [
                    4.51022,
                    -0.15967,
                    0.22264
                ],
                [
                    -0.13717,
                    3.71297,
                    -0.20494
                ],
                [
                    0.50784,
                    -0.20073,
                    4.65639
                ]
            ],
            [
                [
                    5.13182,
                    -0.45129,
                    -0.2041
                ],
                [
                    0.17813,
                    5.13596,
                    0.14597
                ],
                [
                    0.00299,
                    -0.10756,
                    5.57095
                ]
            ],
            [
                [
                    5.13182,
                    0.45129,
                    0.2041
                ],
                [
                    -0.17813,
                    5.13596,
                    0.14597
                ],
                [
                    -0.00299,
                    -0.10756,
                    5.57095
                ]
            ],
            [
                [
                    4.51022,
                    -0.15967,
                    -0.22264
                ],
                [
                    -0.13717,
                    3.71297,
                    0.20494
                ],
                [
                    -0.50784,
                    0.20073,
                    4.65639
                ]
            ],
            [
                [
                    4.51022,
                    0.15967,
                    -0.22264
                ],
                [
                    0.13717,
                    3.71297,
                    -0.20494
                ],
                [
                    -0.50784,
                    -0.20073,
                    4.65639
                ]
            ],
            [
                [
                    4.51022,
                    0.15967,
                    0.22264
                ],
                [
                    0.13717,
                    3.71297,
                    0.20494
                ],
                [
                    0.50784,
                    0.20073,
                    4.65639
                ]
            ],
            [
                [
                    5.13182,
                    0.45129,
                    -0.2041
                ],
                [
                    -0.17813,
                    5.13596,
                    -0.14597
                ],
                [
                    0.00299,
                    0.10756,
                    5.57095
                ]
            ],
            [
                [
                    5.13182,
                    -0.45129,
                    0.2041
                ],
                [
                    0.17813,
                    5.13596,
                    -0.14597
                ],
                [
                    -0.00299,
                    0.10756,
                    5.57095
                ]
            ],
            [
                [
                    -2.19787,
                    -0.79026,
                    -0.10384
                ],
                [
                    -0.74049,
                    -2.34276,
                    -0.67917
                ],
                [
                    0.13855,
                    -0.49467,
                    -2.37986
                ]
            ],
            [
                [
                    -2.48653,
                    0.75693,
                    0.18738
                ],
                [
                    0.70198,
                    -2.25703,
                    -0.13678
                ],
                [
                    0.08573,
                    -0.14322,
                    -2.05542
                ]
            ],
            [
                [
                    -2.47439,
                    -1.17128,
                    -0.08458
                ],
                [
                    -0.57164,
                    -2.04487,
                    0.7571
                ],
                [
                    -0.25894,
                    0.82435,
                    -2.90046
                ]
            ],
            [
                [
                    -2.48325,
                    0.93622,
                    0.30306
                ],
                [
                    0.5219,
                    -2.20428,
                    0.75316
                ],
                [
                    0.34577,
                    0.93193,
                    -2.8916
                ]
            ],
            [
                [
                    -2.19787,
                    -0.79026,
                    0.10384
                ],
                [
                    -0.74049,
                    -2.34276,
                    0.67918
                ],
                [
                    -0.13855,
                    0.49467,
                    -2.37986
                ]
            ],
            [
                [
                    -2.48653,
                    0.75693,
                    -0.18738
                ],
                [
                    0.70198,
                    -2.25703,
                    0.13678
                ],
                [
                    -0.08573,
                    0.14322,
                    -2.05542
                ]
            ],
            [
                [
                    -2.48325,
                    -0.93622,
                    0.30306
                ],
                [
                    -0.5219,
                    -2.20428,
                    -0.75316
                ],
                [
                    0.34577,
                    -0.93193,
                    -2.8916
                ]
            ],
            [
                [
                    -2.19787,
                    0.79026,
                    0.10384
                ],
                [
                    0.74049,
                    -2.34276,
                    -0.67917
                ],
                [
                    -0.13855,
                    -0.49467,
                    -2.37986
                ]
            ],
            [
                [
                    -2.47439,
                    1.17128,
                    -0.08458
                ],
                [
                    0.57164,
                    -2.04487,
                    -0.7571
                ],
                [
                    -0.25894,
                    -0.82435,
                    -2.90046
                ]
            ],
            [
                [
                    -2.19787,
                    0.79026,
                    -0.10384
                ],
                [
                    0.74049,
                    -2.34276,
                    0.67918
                ],
                [
                    0.13855,
                    0.49467,
                    -2.37986
                ]
            ],
            [
                [
                    -2.48325,
                    -0.93622,
                    -0.30306
                ],
                [
                    -0.5219,
                    -2.20428,
                    0.75316
                ],
                [
                    -0.34577,
                    0.93193,
                    -2.8916
                ]
            ],
            [
                [
                    -2.47439,
                    -1.17128,
                    0.08458
                ],
                [
                    -0.57164,
                    -2.04487,
                    -0.7571
                ],
                [
                    0.25894,
                    -0.82435,
                    -2.90046
                ]
            ],
            [
                [
                    -2.48653,
                    -0.75693,
                    -0.18738
                ],
                [
                    -0.70198,
                    -2.25703,
                    -0.13678
                ],
                [
                    -0.08573,
                    -0.14322,
                    -2.05542
                ]
            ],
            [
                [
                    -2.48325,
                    0.93622,
                    -0.30306
                ],
                [
                    0.5219,
                    -2.20428,
                    -0.75316
                ],
                [
                    -0.34577,
                    -0.93193,
                    -2.8916
                ]
            ],
            [
                [
                    -2.47439,
                    1.17128,
                    0.08458
                ],
                [
                    0.57164,
                    -2.04487,
                    0.7571
                ],
                [
                    0.25894,
                    0.82435,
                    -2.90046
                ]
            ],
            [
                [
                    -2.48653,
                    -0.75693,
                    0.18738
                ],
                [
                    -0.70198,
                    -2.25703,
                    0.13678
                ],
                [
                    0.08573,
                    0.14322,
                    -2.05542
                ]
            ]
        ]
    },
    "band_gap": 1.9913999999999996,
    "is_direct": false,
    "formula": "SbO2"
}