{
    "mp_id": "mp-29365",
    "nelements": 3,
    "nsites": 11,
    "elements": [
        "Bi",
        "Li",
        "O"
    ],
    "structure": {
        "@module": "pymatgen.core.structure",
        "@class": "Structure",
        "charge": null,
        "lattice": {
            "matrix": [
                [
                    4.92534484,
                    -2.11604903,
                    -0.00062613
                ],
                [
                    4.92534484,
                    2.11604903,
                    -0.00062613
                ],
                [
                    -1.99708453,
                    0.0,
                    5.62661105
                ]
            ],
            "a": 5.360660937078314,
            "b": 5.360660937078314,
            "c": 5.970519117124359,
            "alpha": 107.90492700924901,
            "beta": 107.90492700924901,
            "gamma": 46.49909400748578,
            "volume": 117.27884031321013
        },
        "sites": [
            {
                "species": [
                    {
                        "element": "Li",
                        "occu": 1
                    }
                ],
                "abc": [
                    0.28990083,
                    0.28990083,
                    0.158289
                ],
                "xyz": [
                    2.5396066011352647,
                    0.0,
                    0.8902676052800743
                ],
                "label": "Li",
                "properties": {}
            },
            {
                "species": [
                    {
                        "element": "Li",
                        "occu": 1
                    }
                ],
                "abc": [
                    0.0,
                    0.0,
                    0.0
                ],
                "xyz": [
                    0.0,
                    0.0,
                    0.0
                ],
                "label": "Li",
                "properties": {}
            },
            {
                "species": [
                    {
                        "element": "Li",
                        "occu": 1
                    }
                ],
                "abc": [
                    0.68830512,
                    0.68830512,
                    0.3601243
                ],
                "xyz": [
                    6.061081473868082,
                    0.0,
                    2.025417428783944
                ],
                "label": "Li",
                "properties": {}
            },
            {
                "species": [
                    {
                        "element": "Li",
                        "occu": 1
                    }
                ],
                "abc": [
                    0.31169488,
                    0.31169488,
                    0.6398757
                ],
                "xyz": [
                    1.7925236761319174,
                    0.0,
                    3.5999413612160565
                ],
                "label": "Li",
                "properties": {}
            },
            {
                "species": [
                    {
                        "element": "Li",
                        "occu": 1
                    }
                ],
                "abc": [
                    0.71009917,
                    0.71009917,
                    0.841711
                ],
                "xyz": [
                    5.313998548864736,
                    0.0,
                    4.735091184719926
                ],
                "label": "Li",
                "properties": {}
            },
            {
                "species": [
                    {
                        "element": "Bi",
                        "occu": 1
                    }
                ],
                "abc": [
                    0.0,
                    0.0,
                    0.5
                ],
                "xyz": [
                    -0.998542265,
                    0.0,
                    2.813305525
                ],
                "label": "Bi",
                "properties": {}
            },
            {
                "species": [
                    {
                        "element": "O",
                        "occu": 1
                    }
                ],
                "abc": [
                    0.14998548,
                    0.14998548,
                    0.32001302
                ],
                "xyz": [
                    0.838367368345266,
                    0.0,
                    1.8004009736586861
                ],
                "label": "O",
                "properties": {}
            },
            {
                "species": [
                    {
                        "element": "O",
                        "occu": 1
                    }
                ],
                "abc": [
                    0.5,
                    0.5,
                    0.5
                ],
                "xyz": [
                    3.926802575,
                    0.0,
                    2.812679395
                ],
                "label": "O",
                "properties": {}
            },
            {
                "species": [
                    {
                        "element": "O",
                        "occu": 1
                    }
                ],
                "abc": [
                    0.83409576,
                    0.83409576,
                    0.17206124
                ],
                "xyz": [
                    7.872797654547139,
                    0.0,
                    0.9670771695042845
                ],
                "label": "O",
                "properties": {}
            },
            {
                "species": [
                    {
                        "element": "O",
                        "occu": 1
                    }
                ],
                "abc": [
                    0.16590424,
                    0.16590424,
                    0.82793876
                ],
                "xyz": [
                    -0.0191925045471395,
                    0.0,
                    4.658281620495716
                ],
                "label": "O",
                "properties": {}
            },
            {
                "species": [
                    {
                        "element": "O",
                        "occu": 1
                    }
                ],
                "abc": [
                    0.85001452,
                    0.85001452,
                    0.67998698
                ],
                "xyz": [
                    7.015237781654735,
                    0.0,
                    3.8249578163413136
                ],
                "label": "O",
                "properties": {}
            }
        ]
    },
    "spacegroup": {
        "source": "spglib",
        "symbol": "C2/m",
        "number": 12,
        "point_group": "2/m",
        "crystal_system": "monoclinic",
        "hall": "-C 2y"
    },
    "dielectric": {
        "epsilon_ionic": [
            [
                24.84495369,
                1e-08,
                3.95427402
            ],
            [
                1e-08,
                15.9163783,
                -5e-08
            ],
            [
                3.95427402,
                -5e-08,
                11.66377158
            ]
        ],
        "epsilon_ionic_avg": 17.47503452333334,
        "epsilon_ionic_eig": [
            25.940205040325075,
            10.56852022967494,
            15.916378300000007
        ],
        "epsilon_electronic": [
            [
                3.79404206,
                0.0,
                0.01614232
            ],
            [
                0.0,
                4.17974082,
                0.0
            ],
            [
                0.01613856,
                0.0,
                3.8023713
            ]
        ],
        "epsilon_electronic_avg": 3.925384726666666,
        "epsilon_electronic_eig": [
            3.7815376110516876,
            3.8148757489483125,
            4.17974082
        ]
    },
    "phonon": {
        "lowest_freq": -0.04330591647743848,
        "frequency": [
            -0.04330591647743848,
            -0.028165514230586983,
            -0.01771553711349977,
            2.4691678290538883,
            3.447494194955338,
            4.6956503746609295,
            5.314538336152917,
            5.7476608171059915,
            6.276382205721173,
            6.553732276817358,
            7.124693343369161,
            7.314432833478918,
            7.6337658906427945,
            7.791216744895035,
            8.753780256125719,
            9.131561111304634,
            9.144957498422315,
            9.268964044090707,
            9.745745948202615,
            11.058978044533578,
            11.535900239432479,
            11.941843380547176,
            12.16967321578875,
            12.682967042251995,
            12.841270725672892,
            13.51248768455745,
            13.764136598799832,
            15.251701357985178,
            16.093320183212445,
            16.70612213063488,
            17.6280376466812,
            18.870999510686115,
            19.00424064881392
        ]
    },
    "born_effective_charge": {
        "avg_abs_trace": 1.7637278787878785,
        "tensors": [
            [
                [
                    1.08696,
                    0.0,
                    0.04358
                ],
                [
                    0.00011,
                    0.99173,
                    4e-05
                ],
                [
                    0.04671,
                    0.0,
                    1.34528
                ]
            ],
            [
                [
                    0.96384,
                    0.0,
                    -0.24216
                ],
                [
                    0.0,
                    0.64929,
                    0.0
                ],
                [
                    -0.148,
                    0.0,
                    1.43248
                ]
            ],
            [
                [
                    1.17098,
                    0.0,
                    0.03586
                ],
                [
                    -7e-05,
                    1.08971,
                    1e-05
                ],
                [
                    -0.04663,
                    0.0,
                    0.68731
                ]
            ],
            [
                [
                    1.17093,
                    0.0,
                    0.03587
                ],
                [
                    7e-05,
                    1.08971,
                    -1e-05
                ],
                [
                    -0.04649,
                    0.0,
                    0.68736
                ]
            ],
            [
                [
                    1.08714,
                    0.0,
                    0.04356
                ],
                [
                    -0.00011,
                    0.99173,
                    -4e-05
                ],
                [
                    0.04637,
                    0.0,
                    1.34507
                ]
            ],
            [
                [
                    4.01411,
                    0.0,
                    0.2766
                ],
                [
                    0.0,
                    5.77485,
                    0.0
                ],
                [
                    0.15023,
                    0.0,
                    3.52303
                ]
            ],
            [
                [
                    -2.24267,
                    0.0,
                    0.28263
                ],
                [
                    -2e-05,
                    -1.58979,
                    9e-05
                ],
                [
                    0.33942,
                    0.0,
                    -1.60822
                ]
            ],
            [
                [
                    -1.48251,
                    0.0,
                    -0.15756
                ],
                [
                    0.0,
                    -4.15622,
                    0.0
                ],
                [
                    -0.07606,
                    0.0,
                    -1.05079
                ]
            ],
            [
                [
                    -1.76311,
                    0.0,
                    -0.30052
                ],
                [
                    -0.00017,
                    -1.62561,
                    8e-05
                ],
                [
                    -0.30212,
                    0.0,
                    -2.37687
                ]
            ],
            [
                [
                    -1.76294,
                    0.0,
                    -0.30051
                ],
                [
                    0.00017,
                    -1.62561,
                    -8e-05
                ],
                [
                    -0.3029,
                    0.0,
                    -2.3766
                ]
            ],
            [
                [
                    -2.24272,
                    0.0,
                    0.28267
                ],
                [
                    2e-05,
                    -1.58979,
                    -9e-05
                ],
                [
                    0.33948,
                    0.0,
                    -1.60806
                ]
            ]
        ]
    },
    "band_gap": 1.5065,
    "is_direct": false,
    "formula": "Li5BiO5"
}