{
    "mp_id": "mp-27704",
    "nelements": 3,
    "nsites": 22,
    "elements": [
        "K",
        "O",
        "V"
    ],
    "structure": {
        "@module": "pymatgen.core.structure",
        "@class": "Structure",
        "charge": null,
        "lattice": {
            "matrix": [
                [
                    8.69617051,
                    0.0,
                    0.0
                ],
                [
                    -4.34808525,
                    7.53110475,
                    0.0
                ],
                [
                    0.0,
                    0.0,
                    5.12305219
                ]
            ],
            "a": 8.69617051,
            "b": 8.696170657061653,
            "c": 5.12305219,
            "alpha": 90.0,
            "beta": 90.0,
            "gamma": 119.9999994025465,
            "volume": 335.5177610261494
        },
        "sites": [
            {
                "species": [
                    {
                        "element": "K",
                        "occu": 1
                    }
                ],
                "abc": [
                    0.60981144,
                    0.0,
                    0.99725406
                ],
                "xyz": [
                    5.303024261188634,
                    0.0,
                    5.108984596069392
                ],
                "label": "K",
                "properties": {}
            },
            {
                "species": [
                    {
                        "element": "K",
                        "occu": 1
                    }
                ],
                "abc": [
                    0.0,
                    0.60981144,
                    0.99725406
                ],
                "xyz": [
                    -2.6515121275452596,
                    4.59255383238834,
                    5.108984596069392
                ],
                "label": "K",
                "properties": {}
            },
            {
                "species": [
                    {
                        "element": "K",
                        "occu": 1
                    }
                ],
                "abc": [
                    0.39018856,
                    0.39018856,
                    0.99725406
                ],
                "xyz": [
                    1.696573126356626,
                    2.93855091761166,
                    5.108984596069392
                ],
                "label": "K",
                "properties": {}
            },
            {
                "species": [
                    {
                        "element": "V",
                        "occu": 1
                    }
                ],
                "abc": [
                    0.333333,
                    0.666667,
                    0.46465291
                ],
                "xyz": [
                    -4.34475192001571e-06,
                    5.02073901036825,
                    2.380441108165373
                ],
                "label": "V",
                "properties": {}
            },
            {
                "species": [
                    {
                        "element": "V",
                        "occu": 1
                    }
                ],
                "abc": [
                    0.666667,
                    0.333333,
                    0.46465291
                ],
                "xyz": [
                    4.34808960475192,
                    2.51036573963175,
                    2.380441108165373
                ],
                "label": "V",
                "properties": {}
            },
            {
                "species": [
                    {
                        "element": "V",
                        "occu": 1
                    }
                ],
                "abc": [
                    0.22893939,
                    0.0,
                    0.47394074
                ],
                "xyz": [
                    1.990895971895389,
                    0.0,
                    2.4280231459872206
                ],
                "label": "V",
                "properties": {}
            },
            {
                "species": [
                    {
                        "element": "V",
                        "occu": 1
                    }
                ],
                "abc": [
                    0.0,
                    0.22893939,
                    0.47394074
                ],
                "xyz": [
                    -0.9954479848029973,
                    1.7241665274911024,
                    2.4280231459872206
                ],
                "label": "V",
                "properties": {}
            },
            {
                "species": [
                    {
                        "element": "V",
                        "occu": 1
                    }
                ],
                "abc": [
                    0.77106061,
                    0.77106061,
                    0.47394074
                ],
                "xyz": [
                    3.3526372729076095,
                    5.806938222508898,
                    2.4280231459872206
                ],
                "label": "V",
                "properties": {}
            },
            {
                "species": [
                    {
                        "element": "O",
                        "occu": 1
                    }
                ],
                "abc": [
                    0.333333,
                    0.666667,
                    0.7861156
                ],
                "xyz": [
                    -4.34475192001571e-06,
                    5.02073901036825,
                    4.027311246173165
                ],
                "label": "O",
                "properties": {}
            },
            {
                "species": [
                    {
                        "element": "O",
                        "occu": 1
                    }
                ],
                "abc": [
                    0.666667,
                    0.333333,
                    0.7861156
                ],
                "xyz": [
                    4.34808960475192,
                    2.51036573963175,
                    4.027311246173165
                ],
                "label": "O",
                "properties": {}
            },
            {
                "species": [
                    {
                        "element": "O",
                        "occu": 1
                    }
                ],
                "abc": [
                    0.24968793,
                    0.0,
                    0.7889874
                ],
                "xyz": [
                    2.171328813568944,
                    0.0,
                    4.042023627452406
                ],
                "label": "O",
                "properties": {}
            },
            {
                "species": [
                    {
                        "element": "O",
                        "occu": 1
                    }
                ],
                "abc": [
                    0.0,
                    0.24968793,
                    0.7889874
                ],
                "xyz": [
                    -1.0856644055360325,
                    1.8804259556406675,
                    4.042023627452406
                ],
                "label": "O",
                "properties": {}
            },
            {
                "species": [
                    {
                        "element": "O",
                        "occu": 1
                    }
                ],
                "abc": [
                    0.75031207,
                    0.75031207,
                    0.7889874
                ],
                "xyz": [
                    3.262420851967088,
                    5.650678794359332,
                    4.042023627452406
                ],
                "label": "O",
                "properties": {}
            },
            {
                "species": [
                    {
                        "element": "O",
                        "occu": 1
                    }
                ],
                "abc": [
                    0.83060381,
                    0.0,
                    0.4087363
                ],
                "xyz": [
                    7.223072358015644,
                    0.0,
                    2.093977396847497
                ],
                "label": "O",
                "properties": {}
            },
            {
                "species": [
                    {
                        "element": "O",
                        "occu": 1
                    }
                ],
                "abc": [
                    0.0,
                    0.83060381,
                    0.4087363
                ],
                "xyz": [
                    -3.6115361748548023,
                    6.255364298859098,
                    2.093977396847497
                ],
                "label": "O",
                "properties": {}
            },
            {
                "species": [
                    {
                        "element": "O",
                        "occu": 1
                    }
                ],
                "abc": [
                    0.16939619,
                    0.16939619,
                    0.4087363
                ],
                "xyz": [
                    0.7365490768391595,
                    1.2757404511409025,
                    2.093977396847497
                ],
                "label": "O",
                "properties": {}
            },
            {
                "species": [
                    {
                        "element": "O",
                        "occu": 1
                    }
                ],
                "abc": [
                    0.46059941,
                    0.16798784,
                    0.34745241
                ],
                "xyz": [
                    3.2750255568820386,
                    1.26513401976624,
                    1.780016829971278
                ],
                "label": "O",
                "properties": {}
            },
            {
                "species": [
                    {
                        "element": "O",
                        "occu": 1
                    }
                ],
                "abc": [
                    0.83201216,
                    0.29261157,
                    0.34745241
                ],
                "xyz": [
                    5.963019558257059,
                    2.2036883847319575,
                    1.780016829971278
                ],
                "label": "O",
                "properties": {}
            },
            {
                "species": [
                    {
                        "element": "O",
                        "occu": 1
                    }
                ],
                "abc": [
                    0.70738843,
                    0.53940059,
                    0.34745241
                ],
                "xyz": [
                    3.806210654860902,
                    4.062282345501802,
                    1.780016829971278
                ],
                "label": "O",
                "properties": {}
            },
            {
                "species": [
                    {
                        "element": "O",
                        "occu": 1
                    }
                ],
                "abc": [
                    0.16798784,
                    0.46059941,
                    0.34745241
                ],
                "xyz": [
                    -0.5418746005331041,
                    3.4688224044981975,
                    1.780016829971278
                ],
                "label": "O",
                "properties": {}
            },
            {
                "species": [
                    {
                        "element": "O",
                        "occu": 1
                    }
                ],
                "abc": [
                    0.29261157,
                    0.83201216,
                    0.34745241
                ],
                "xyz": [
                    -1.0730596947978395,
                    6.26597073023376,
                    1.780016829971278
                ],
                "label": "O",
                "properties": {}
            },
            {
                "species": [
                    {
                        "element": "O",
                        "occu": 1
                    }
                ],
                "abc": [
                    0.53940059,
                    0.70738843,
                    0.34745241
                ],
                "xyz": [
                    1.6149343053309435,
                    5.327416365268042,
                    1.780016829971278
                ],
                "label": "O",
                "properties": {}
            }
        ]
    },
    "spacegroup": {
        "source": "spglib",
        "symbol": "P31m",
        "number": 157,
        "point_group": "3m",
        "crystal_system": "trigonal",
        "hall": "P 3 -2"
    },
    "dielectric": {
        "epsilon_ionic": [
            [
                16.14967877,
                -0.0002833,
                -4.685e-05
            ],
            [
                -0.0002833,
                16.14932957,
                0.00010368
            ],
            [
                -4.685e-05,
                0.00010368,
                3.25433568
            ]
        ],
        "epsilon_ionic_avg": 11.85111467333334,
        "epsilon_ionic_eig": [
            16.14983695293473,
            16.149171388069103,
            3.2543356789961853
        ],
        "epsilon_electronic": [
            [
                5.11131281,
                3.4e-07,
                0.0
            ],
            [
                3.4e-07,
                5.1113128,
                0.0
            ],
            [
                0.0,
                -0.0,
                2.91143888
            ]
        ],
        "epsilon_electronic_avg": 4.378021496666667,
        "epsilon_electronic_eig": [
            5.111313145036763,
            5.1113124649632375,
            2.91143888
        ]
    },
    "phonon": {
        "lowest_freq": -0.05772253826196635,
        "frequency": [
            -0.05772253826196635,
            -0.04245476731838993,
            -0.042454764526381514,
            1.880146557339888,
            1.8801465768383783,
            1.9872531012180756,
            2.1801989924344016,
            2.420536040062881,
            2.4205360854991214,
            2.470899078747185,
            3.0648120734314217,
            3.06481214520095,
            3.294519255965872,
            3.2945192633842573,
            3.458061270291535,
            3.610054950676919,
            3.6942852526230863,
            3.7425816989786624,
            3.742581783871977,
            4.216064765176072,
            4.216064849230802,
            4.871641273980753,
            4.871641319131886,
            4.918482630022199,
            6.0233129501371865,
            6.55124910827688,
            6.551249425376876,
            6.903496871155638,
            6.903496871155638,
            8.018373372117665,
            8.556632753308742,
            8.556632781871395,
            8.83836225803621,
            8.838362423949388,
            9.107933811296226,
            9.882083198187336,
            9.882083222918979,
            9.939744671011779,
            9.939744793952629,
            10.493301151228657,
            10.504582262087135,
            10.504582401683432,
            11.215851150140358,
            11.215851171930957,
            12.187062528486644,
            12.486446551883148,
            12.681777568126103,
            12.681777780115425,
            13.865802095606758,
            14.567700714759413,
            14.567700798643664,
            15.431094137896457,
            16.514299448447442,
            19.55906848302007,
            19.55906848302007,
            21.171887057897127,
            21.17188717333329,
            24.850546780621183,
            26.122368850404236,
            27.16115870401277,
            27.161159018947952,
            27.785045434447902,
            27.883862424643546,
            28.747838413472373,
            28.747838413472373,
            29.194243760852235
        ]
    },
    "born_effective_charge": {
        "avg_abs_trace": 2.697263636363636,
        "tensors": [
            [
                [
                    1.23388,
                    0.0,
                    -0.00949
                ],
                [
                    -4e-05,
                    1.15282,
                    9e-05
                ],
                [
                    0.01821,
                    -0.0,
                    1.42357
                ]
            ],
            [
                [
                    1.17311,
                    -0.03518,
                    0.00471
                ],
                [
                    -0.03509,
                    1.21356,
                    -0.00814
                ],
                [
                    -0.0091,
                    0.01577,
                    1.42357
                ]
            ],
            [
                [
                    1.17311,
                    0.03518,
                    0.00471
                ],
                [
                    0.03511,
                    1.21372,
                    0.00815
                ],
                [
                    -0.0091,
                    -0.01577,
                    1.42357
                ]
            ],
            [
                [
                    5.24953,
                    -0.44646,
                    -5e-05
                ],
                [
                    0.4467,
                    5.24947,
                    9e-05
                ],
                [
                    0.0,
                    -0.0,
                    2.60954
                ]
            ],
            [
                [
                    5.24953,
                    0.44646,
                    -5e-05
                ],
                [
                    -0.44626,
                    5.24982,
                    -4e-05
                ],
                [
                    0.0,
                    -0.0,
                    2.60954
                ]
            ],
            [
                [
                    8.22672,
                    0.0,
                    -0.03209
                ],
                [
                    -0.00036,
                    6.59017,
                    -0.00087
                ],
                [
                    0.0051,
                    -0.0,
                    2.30397
                ]
            ],
            [
                [
                    6.99905,
                    -0.70862,
                    0.01574
                ],
                [
                    -0.70894,
                    7.81731,
                    -0.02754
                ],
                [
                    -0.00255,
                    0.00441,
                    2.30397
                ]
            ],
            [
                [
                    6.99905,
                    0.70862,
                    0.01574
                ],
                [
                    0.70852,
                    7.81714,
                    0.02854
                ],
                [
                    -0.00255,
                    -0.00441,
                    2.30397
                ]
            ],
            [
                [
                    -0.68828,
                    0.03071,
                    -0.00013
                ],
                [
                    -0.0307,
                    -0.68832,
                    -0.00024
                ],
                [
                    0.0,
                    -0.0,
                    -2.07657
                ]
            ],
            [
                [
                    -0.68828,
                    -0.03071,
                    -0.00013
                ],
                [
                    0.03073,
                    -0.68822,
                    -0.00016
                ],
                [
                    0.0,
                    -0.0,
                    -2.07657
                ]
            ],
            [
                [
                    -0.66752,
                    0.0,
                    -0.66244
                ],
                [
                    5e-05,
                    -0.63028,
                    0.00098
                ],
                [
                    -0.15101,
                    -0.0,
                    -1.72405
                ]
            ],
            [
                [
                    -0.63957,
                    0.016,
                    0.33173
                ],
                [
                    0.01597,
                    -0.65824,
                    -0.57401
                ],
                [
                    0.07551,
                    -0.13078,
                    -1.72405
                ]
            ],
            [
                [
                    -0.63957,
                    -0.016,
                    0.33173
                ],
                [
                    -0.01592,
                    -0.65813,
                    0.57296
                ],
                [
                    0.07551,
                    0.13078,
                    -1.72405
                ]
            ],
            [
                [
                    -1.61027,
                    0.0,
                    -0.26248
                ],
                [
                    -2e-05,
                    -5.66156,
                    0.0001
                ],
                [
                    -0.23162,
                    -0.0,
                    -0.59754
                ]
            ],
            [
                [
                    -4.64878,
                    -1.75432,
                    0.13122
                ],
                [
                    -1.75402,
                    -2.62304,
                    -0.22725
                ],
                [
                    0.11581,
                    -0.20059,
                    -0.59754
                ]
            ],
            [
                [
                    -4.64878,
                    1.75432,
                    0.13122
                ],
                [
                    1.75458,
                    -2.62312,
                    0.2272
                ],
                [
                    0.11581,
                    0.20059,
                    -0.59754
                ]
            ],
            [
                [
                    -3.711,
                    -2.72344,
                    -0.01761
                ],
                [
                    -2.41169,
                    -3.64688,
                    -0.13759
                ],
                [
                    -0.05283,
                    -0.10389,
                    -0.88063
                ]
            ],
            [
                [
                    -5.88615,
                    1.15564,
                    0.12805
                ],
                [
                    1.46757,
                    -1.47126,
                    0.05368
                ],
                [
                    0.11639,
                    0.0062,
                    -0.88063
                ]
            ],
            [
                [
                    -1.43933,
                    1.10003,
                    -0.11041
                ],
                [
                    1.41175,
                    -5.91866,
                    0.08412
                ],
                [
                    -0.06356,
                    0.0977,
                    -0.88063
                ]
            ],
            [
                [
                    -1.43933,
                    -1.10003,
                    -0.11041
                ],
                [
                    -1.41164,
                    -5.91824,
                    -0.08405
                ],
                [
                    -0.06356,
                    -0.0977,
                    -0.88063
                ]
            ],
            [
                [
                    -3.711,
                    2.72344,
                    -0.01761
                ],
                [
                    2.41134,
                    -3.64639,
                    0.13773
                ],
                [
                    -0.05283,
                    0.10389,
                    -0.88063
                ]
            ],
            [
                [
                    -5.88615,
                    -1.15564,
                    0.12805
                ],
                [
                    -1.46765,
                    -1.47167,
                    -0.05376
                ],
                [
                    0.11639,
                    -0.0062,
                    -0.88063
                ]
            ]
        ]
    },
    "band_gap": 2.3407,
    "is_direct": false,
    "formula": "K3V5O14"
}