{
    "mp_id": "mp-27303",
    "nelements": 3,
    "nsites": 12,
    "elements": [
        "Ag",
        "Na",
        "O"
    ],
    "structure": {
        "@module": "pymatgen.core.structure",
        "@class": "Structure",
        "charge": null,
        "lattice": {
            "matrix": [
                [
                    -2.98716377,
                    5.20537211,
                    2.92892747
                ],
                [
                    2.98716377,
                    -5.20537211,
                    2.92892747
                ],
                [
                    2.98716377,
                    5.20537211,
                    -2.92892747
                ]
            ],
            "a": 6.67814812031652,
            "b": 6.67814812031652,
            "c": 6.67814812031652,
            "alpha": 126.85828805556892,
            "beta": 77.57705599836811,
            "gamma": 127.97288835067381,
            "volume": 182.17107564442006
        },
        "sites": [
            {
                "species": [
                    {
                        "element": "Na",
                        "occu": 1
                    }
                ],
                "abc": [
                    0.75,
                    0.25,
                    0.5
                ],
                "xyz": [
                    2.220446049250313e-16,
                    5.205372110000001,
                    1.464463735
                ],
                "label": "Na",
                "properties": {}
            },
            {
                "species": [
                    {
                        "element": "Na",
                        "occu": 1
                    }
                ],
                "abc": [
                    0.25,
                    0.75,
                    0.5
                ],
                "xyz": [
                    2.9871637699999996,
                    -4.440892098500626e-16,
                    1.464463735
                ],
                "label": "Na",
                "properties": {}
            },
            {
                "species": [
                    {
                        "element": "Ag",
                        "occu": 1
                    }
                ],
                "abc": [
                    0.0,
                    0.0,
                    0.5
                ],
                "xyz": [
                    1.493581885,
                    2.602686055,
                    -1.464463735
                ],
                "label": "Ag",
                "properties": {}
            },
            {
                "species": [
                    {
                        "element": "Ag",
                        "occu": 1
                    }
                ],
                "abc": [
                    0.5,
                    0.0,
                    0.0
                ],
                "xyz": [
                    -1.493581885,
                    2.602686055,
                    1.464463735
                ],
                "label": "Ag",
                "properties": {}
            },
            {
                "species": [
                    {
                        "element": "Ag",
                        "occu": 1
                    }
                ],
                "abc": [
                    0.5,
                    0.5,
                    0.5
                ],
                "xyz": [
                    1.493581885,
                    2.602686055,
                    1.464463735
                ],
                "label": "Ag",
                "properties": {}
            },
            {
                "species": [
                    {
                        "element": "Ag",
                        "occu": 1
                    }
                ],
                "abc": [
                    0.5,
                    0.5,
                    0.0
                ],
                "xyz": [
                    0.0,
                    0.0,
                    2.92892747
                ],
                "label": "Ag",
                "properties": {}
            },
            {
                "species": [
                    {
                        "element": "Ag",
                        "occu": 1
                    }
                ],
                "abc": [
                    0.0,
                    0.0,
                    0.0
                ],
                "xyz": [
                    0.0,
                    0.0,
                    0.0
                ],
                "label": "Ag",
                "properties": {}
            },
            {
                "species": [
                    {
                        "element": "Ag",
                        "occu": 1
                    }
                ],
                "abc": [
                    0.0,
                    0.5,
                    0.0
                ],
                "xyz": [
                    1.493581885,
                    -2.602686055,
                    1.464463735
                ],
                "label": "Ag",
                "properties": {}
            },
            {
                "species": [
                    {
                        "element": "O",
                        "occu": 1
                    }
                ],
                "abc": [
                    0.61097158,
                    0.2095107,
                    0.82048328
                ],
                "xyz": [
                    1.251688532098448,
                    6.360674050441378,
                    -2.928927470335907e-06
                ],
                "label": "O",
                "properties": {}
            },
            {
                "species": [
                    {
                        "element": "O",
                        "occu": 1
                    }
                ],
                "abc": [
                    0.11097158,
                    0.2904893,
                    0.40146088
                ],
                "xyz": [
                    1.735478225065322,
                    1.1552967350692678,
                    -2.220446049250313e-16
                ],
                "label": "O",
                "properties": {}
            },
            {
                "species": [
                    {
                        "element": "O",
                        "occu": 1
                    }
                ],
                "abc": [
                    0.88902842,
                    0.7095107,
                    0.59853912
                ],
                "xyz": [
                    1.251685544934678,
                    4.050075374930731,
                    2.9289274699999996
                ],
                "label": "O",
                "properties": {}
            },
            {
                "species": [
                    {
                        "element": "O",
                        "occu": 1
                    }
                ],
                "abc": [
                    0.38902842,
                    0.7904893,
                    0.17951672
                ],
                "xyz": [
                    1.735475237901552,
                    -1.155301940441377,
                    2.92893039892747
                ],
                "label": "O",
                "properties": {}
            }
        ]
    },
    "spacegroup": {
        "source": "spglib",
        "symbol": "Ibam",
        "number": 72,
        "point_group": "mmm",
        "crystal_system": "orthorhombic",
        "hall": "-I 2 2c"
    },
    "dielectric": {
        "epsilon_ionic": [
            [
                14.61559122,
                0.0,
                -1e-08
            ],
            [
                0.0,
                1.64534095,
                -0.0
            ],
            [
                -1e-08,
                -0.0,
                1.47955847
            ]
        ],
        "epsilon_ionic_avg": 5.913496880000001,
        "epsilon_ionic_eig": [
            14.615591220000002,
            1.47955847,
            1.64534095
        ],
        "epsilon_electronic": [
            [
                5.4402963,
                0.0,
                0.0
            ],
            [
                0.0,
                5.76053375,
                0.0
            ],
            [
                0.0,
                0.0,
                6.2191188
            ]
        ],
        "epsilon_electronic_avg": 5.806649616666667,
        "epsilon_electronic_eig": [
            5.4402963,
            5.76053375,
            6.2191188
        ]
    },
    "phonon": {
        "lowest_freq": -0.022398710701741077,
        "frequency": [
            -0.022398710701741077,
            -0.012002198023371456,
            -0.006746982254102867,
            0.15946458105833594,
            1.413393477753727,
            1.5390281216540402,
            1.8171657729936455,
            2.0148090749455587,
            2.157183262212711,
            2.4008478796373094,
            2.5073695003938163,
            2.790238765776462,
            2.933797761019122,
            3.033427415484461,
            3.0479357861506386,
            3.666675650441723,
            3.8086417149282896,
            4.016980906657517,
            5.76798536259873,
            6.169039947926968,
            6.463710984755667,
            7.270939349791772,
            7.540055553993504,
            7.795603218936849,
            10.065985370433642,
            10.680385765865486,
            11.523927447501308,
            12.370968587570934,
            12.51056794212279,
            12.593400637963457,
            12.72545129639478,
            13.110941799604438,
            14.198042427629552,
            14.399040666907862,
            14.949952925578044,
            15.083203475143842
        ]
    },
    "born_effective_charge": {
        "avg_abs_trace": 1.1865766666666666,
        "tensors": [
            [
                [
                    1.15903,
                    -0.0,
                    -0.0
                ],
                [
                    -0.0,
                    1.17081,
                    -0.0
                ],
                [
                    -0.0,
                    -0.0,
                    0.8837
                ]
            ],
            [
                [
                    1.15903,
                    -0.0,
                    -0.0
                ],
                [
                    -0.0,
                    1.17081,
                    -0.0
                ],
                [
                    -0.0,
                    -0.0,
                    0.8837
                ]
            ],
            [
                [
                    0.50697,
                    0.13541,
                    -0.14671
                ],
                [
                    -0.08722,
                    0.74566,
                    -0.66844
                ],
                [
                    0.08293,
                    -0.82041,
                    1.16092
                ]
            ],
            [
                [
                    0.50697,
                    -0.13541,
                    0.14671
                ],
                [
                    0.08722,
                    0.74566,
                    -0.66844
                ],
                [
                    -0.08293,
                    -0.82041,
                    1.16092
                ]
            ],
            [
                [
                    0.50697,
                    0.13541,
                    0.14671
                ],
                [
                    -0.08722,
                    0.74566,
                    0.66844
                ],
                [
                    -0.08293,
                    0.82041,
                    1.16092
                ]
            ],
            [
                [
                    1.11303,
                    -0.48821,
                    -0.0
                ],
                [
                    -0.89742,
                    1.01451,
                    -0.0
                ],
                [
                    -0.0,
                    0.0,
                    0.51101
                ]
            ],
            [
                [
                    1.11303,
                    0.48821,
                    -0.0
                ],
                [
                    0.89742,
                    1.01451,
                    -0.0
                ],
                [
                    -0.0,
                    0.0,
                    0.51101
                ]
            ],
            [
                [
                    0.50697,
                    -0.13541,
                    -0.14671
                ],
                [
                    0.08722,
                    0.74566,
                    0.66844
                ],
                [
                    0.08293,
                    0.82041,
                    1.16092
                ]
            ],
            [
                [
                    -1.6431,
                    0.39257,
                    0.0
                ],
                [
                    0.29059,
                    -1.83835,
                    -0.0
                ],
                [
                    4e-05,
                    0.00013,
                    -1.85827
                ]
            ],
            [
                [
                    -1.64291,
                    -0.39285,
                    -0.0
                ],
                [
                    -0.29059,
                    -1.83835,
                    0.0
                ],
                [
                    -4e-05,
                    0.00013,
                    -1.85827
                ]
            ],
            [
                [
                    -1.6431,
                    -0.39257,
                    -0.0
                ],
                [
                    -0.29069,
                    -1.83829,
                    0.0
                ],
                [
                    4e-05,
                    -0.00013,
                    -1.85827
                ]
            ],
            [
                [
                    -1.64291,
                    0.39285,
                    0.0
                ],
                [
                    0.29069,
                    -1.83829,
                    -0.0
                ],
                [
                    -4e-05,
                    -0.00013,
                    -1.85827
                ]
            ]
        ]
    },
    "band_gap": 0.8845000000000001,
    "is_direct": true,
    "formula": "NaAg3O2"
}