{
    "mp_id": "mp-28537",
    "nelements": 3,
    "nsites": 28,
    "elements": [
        "As",
        "O",
        "Pb"
    ],
    "structure": {
        "@module": "pymatgen.core.structure",
        "@class": "Structure",
        "charge": null,
        "lattice": {
            "matrix": [
                [
                    7.04093275,
                    0.0,
                    0.00251075
                ],
                [
                    0.0,
                    11.70173011,
                    0.0
                ],
                [
                    -2.18861166,
                    0.0,
                    5.63821151
                ]
            ],
            "a": 7.040933197658398,
            "b": 11.70173011,
            "c": 6.048094743783734,
            "alpha": 90.0,
            "beta": 111.1945264674879,
            "gamma": 90.0,
            "volume": 464.6027204858891
        },
        "sites": [
            {
                "species": [
                    {
                        "element": "As",
                        "occu": 1
                    }
                ],
                "abc": [
                    0.27476441,
                    0.08121966,
                    0.70935584
                ],
                "xyz": [
                    0.38209327039033325,
                    0.9504105409459626,
                    4.000188126516125
                ],
                "label": "As",
                "properties": {}
            },
            {
                "species": [
                    {
                        "element": "As",
                        "occu": 1
                    }
                ],
                "abc": [
                    0.72523559,
                    0.58121966,
                    0.79064416
                ],
                "xyz": [
                    3.375921989609667,
                    6.801275595945963,
                    4.459639888483874
                ],
                "label": "As",
                "properties": {}
            },
            {
                "species": [
                    {
                        "element": "As",
                        "occu": 1
                    }
                ],
                "abc": [
                    0.72523559,
                    0.91878034,
                    0.29064416
                ],
                "xyz": [
                    4.470227819609667,
                    10.751319569054036,
                    1.640534133483874
                ],
                "label": "As",
                "properties": {}
            },
            {
                "species": [
                    {
                        "element": "As",
                        "occu": 1
                    }
                ],
                "abc": [
                    0.27476441,
                    0.41878034,
                    0.20935584
                ],
                "xyz": [
                    1.4763991003903332,
                    4.9004545140540365,
                    1.1810823715161256
                ],
                "label": "As",
                "properties": {}
            },
            {
                "species": [
                    {
                        "element": "As",
                        "occu": 1
                    }
                ],
                "abc": [
                    0.61934943,
                    0.14490418,
                    0.51194728
                ],
                "xyz": [
                    3.2403438990675473,
                    1.6956296061708598,
                    2.888022078190565
                ],
                "label": "As",
                "properties": {}
            },
            {
                "species": [
                    {
                        "element": "As",
                        "occu": 1
                    }
                ],
                "abc": [
                    0.38065057,
                    0.64490418,
                    0.98805272
                ],
                "xyz": [
                    0.5176713609324528,
                    7.54649466117086,
                    5.571805936809434
                ],
                "label": "As",
                "properties": {}
            },
            {
                "species": [
                    {
                        "element": "As",
                        "occu": 1
                    }
                ],
                "abc": [
                    0.38065057,
                    0.85509582,
                    0.48805272
                ],
                "xyz": [
                    1.6119771909324525,
                    10.00610050382914,
                    2.7527001818094345
                ],
                "label": "As",
                "properties": {}
            },
            {
                "species": [
                    {
                        "element": "As",
                        "occu": 1
                    }
                ],
                "abc": [
                    0.61934943,
                    0.35509582,
                    0.01194728
                ],
                "xyz": [
                    4.334649729067547,
                    4.15523544882914,
                    0.0689163231905653
                ],
                "label": "As",
                "properties": {}
            },
            {
                "species": [
                    {
                        "element": "Pb",
                        "occu": 1
                    }
                ],
                "abc": [
                    0.00805523,
                    0.35095502,
                    0.59770265
                ],
                "xyz": [
                    -1.2514226562871165,
                    4.1067809247896525,
                    3.369994185456224
                ],
                "label": "Pb",
                "properties": {}
            },
            {
                "species": [
                    {
                        "element": "Pb",
                        "occu": 1
                    }
                ],
                "abc": [
                    0.99194477,
                    0.85095502,
                    0.90229735
                ],
                "xyz": [
                    5.009437916287116,
                    9.957645979789651,
                    5.089833829543776
                ],
                "label": "Pb",
                "properties": {}
            },
            {
                "species": [
                    {
                        "element": "Pb",
                        "occu": 1
                    }
                ],
                "abc": [
                    0.99194477,
                    0.64904498,
                    0.40229735
                ],
                "xyz": [
                    6.103743746287116,
                    7.594949185210347,
                    2.2707280745437757
                ],
                "label": "Pb",
                "properties": {}
            },
            {
                "species": [
                    {
                        "element": "Pb",
                        "occu": 1
                    }
                ],
                "abc": [
                    0.00805523,
                    0.14904498,
                    0.09770265
                ],
                "xyz": [
                    -0.15711682628711648,
                    1.7440841302103476,
                    0.550888430456224
                ],
                "label": "Pb",
                "properties": {}
            },
            {
                "species": [
                    {
                        "element": "O",
                        "occu": 1
                    }
                ],
                "abc": [
                    0.54396706,
                    0.08308255,
                    0.75203729
                ],
                "xyz": [
                    2.1841179060264135,
                    0.9722095769505805,
                    4.241511069723102
                ],
                "label": "O",
                "properties": {}
            },
            {
                "species": [
                    {
                        "element": "O",
                        "occu": 1
                    }
                ],
                "abc": [
                    0.45603294,
                    0.58308255,
                    0.74796271
                ],
                "xyz": [
                    1.573897353973586,
                    6.82307463195058,
                    4.218316945276897
                ],
                "label": "O",
                "properties": {}
            },
            {
                "species": [
                    {
                        "element": "O",
                        "occu": 1
                    }
                ],
                "abc": [
                    0.45603294,
                    0.91691745,
                    0.24796271
                ],
                "xyz": [
                    2.6682031839735862,
                    10.729520533049419,
                    1.3992111902768969
                ],
                "label": "O",
                "properties": {}
            },
            {
                "species": [
                    {
                        "element": "O",
                        "occu": 1
                    }
                ],
                "abc": [
                    0.54396706,
                    0.41691745,
                    0.25203729
                ],
                "xyz": [
                    3.2784237360264132,
                    4.87865547804942,
                    1.4224053147231028
                ],
                "label": "O",
                "properties": {}
            },
            {
                "species": [
                    {
                        "element": "O",
                        "occu": 1
                    }
                ],
                "abc": [
                    0.8004139,
                    0.02866462,
                    0.52490387
                ],
                "xyz": [
                    4.486849711804101,
                    0.3354256469457082,
                    2.961528680676969
                ],
                "label": "O",
                "properties": {}
            },
            {
                "species": [
                    {
                        "element": "O",
                        "occu": 1
                    }
                ],
                "abc": [
                    0.1995861,
                    0.52866462,
                    0.97509613
                ],
                "xyz": [
                    -0.7288344518041006,
                    6.186290701945708,
                    5.498299334323031
                ],
                "label": "O",
                "properties": {}
            },
            {
                "species": [
                    {
                        "element": "O",
                        "occu": 1
                    }
                ],
                "abc": [
                    0.1995861,
                    0.97133538,
                    0.47509613
                ],
                "xyz": [
                    0.36547137819589914,
                    11.366304463054291,
                    2.679193579323031
                ],
                "label": "O",
                "properties": {}
            },
            {
                "species": [
                    {
                        "element": "O",
                        "occu": 1
                    }
                ],
                "abc": [
                    0.8004139,
                    0.47133538,
                    0.02490387
                ],
                "xyz": [
                    5.581155541804101,
                    5.515439408054292,
                    0.1424229256769687
                ],
                "label": "O",
                "properties": {}
            },
            {
                "species": [
                    {
                        "element": "O",
                        "occu": 1
                    }
                ],
                "abc": [
                    0.18819269,
                    0.199851,
                    0.51786533
                ],
                "xyz": [
                    0.1916459747838497,
                    2.33860246421361,
                    2.9203067690323654
                ],
                "label": "O",
                "properties": {}
            },
            {
                "species": [
                    {
                        "element": "O",
                        "occu": 1
                    }
                ],
                "abc": [
                    0.81180731,
                    0.699851,
                    0.98213467
                ],
                "xyz": [
                    3.5663692852161497,
                    8.18946751921361,
                    5.5395212459676335
                ],
                "label": "O",
                "properties": {}
            },
            {
                "species": [
                    {
                        "element": "O",
                        "occu": 1
                    }
                ],
                "abc": [
                    0.81180731,
                    0.800149,
                    0.48213467
                ],
                "xyz": [
                    4.660675115216149,
                    9.36312764578639,
                    2.720415490967634
                ],
                "label": "O",
                "properties": {}
            },
            {
                "species": [
                    {
                        "element": "O",
                        "occu": 1
                    }
                ],
                "abc": [
                    0.18819269,
                    0.300149,
                    0.01786533
                ],
                "xyz": [
                    1.2859518047838496,
                    3.51226259078639,
                    0.10120101403236578
                ],
                "label": "O",
                "properties": {}
            },
            {
                "species": [
                    {
                        "element": "O",
                        "occu": 1
                    }
                ],
                "abc": [
                    0.80381436,
                    0.2663758,
                    0.21470822
                ],
                "xyz": [
                    5.1896899384544435,
                    3.117057719435338,
                    1.212588534199982
                ],
                "label": "O",
                "properties": {}
            },
            {
                "species": [
                    {
                        "element": "O",
                        "occu": 1
                    }
                ],
                "abc": [
                    0.19618564,
                    0.7663758,
                    0.28529178
                ],
                "xyz": [
                    0.7569369815455551,
                    8.967922774435339,
                    1.6090279708000177
                ],
                "label": "O",
                "properties": {}
            },
            {
                "species": [
                    {
                        "element": "O",
                        "occu": 1
                    }
                ],
                "abc": [
                    0.19618564,
                    0.7336242,
                    0.78529178
                ],
                "xyz": [
                    -0.3373688484544448,
                    8.584672390564661,
                    4.428133725800017
                ],
                "label": "O",
                "properties": {}
            },
            {
                "species": [
                    {
                        "element": "O",
                        "occu": 1
                    }
                ],
                "abc": [
                    0.80381436,
                    0.2336242,
                    0.71470822
                ],
                "xyz": [
                    4.095384108454444,
                    2.733807335564662,
                    4.031694289199982
                ],
                "label": "O",
                "properties": {}
            }
        ]
    },
    "spacegroup": {
        "source": "spglib",
        "symbol": "P2_1/c",
        "number": 14,
        "point_group": "2/m",
        "crystal_system": "monoclinic",
        "hall": "-P 2ybc"
    },
    "dielectric": {
        "epsilon_ionic": [
            [
                5.97067889,
                5e-08,
                0.39589321
            ],
            [
                5e-08,
                5.49951772,
                -1.3e-07
            ],
            [
                0.39589321,
                -1.3e-07,
                7.18816921
            ]
        ],
        "epsilon_ionic_avg": 6.2194552733333355,
        "epsilon_ionic_eig": [
            7.305579752000295,
            5.8532683479997365,
            5.499517719999974
        ],
        "epsilon_electronic": [
            [
                4.7368159,
                0.0,
                -0.1888546
            ],
            [
                0.0,
                4.80667578,
                0.0
            ],
            [
                -0.18885428,
                0.0,
                4.37516792
            ]
        ],
        "epsilon_electronic_avg": 4.639553199999999,
        "epsilon_electronic_eig": [
            4.8174557026505465,
            4.294528117349453,
            4.80667578
        ]
    },
    "phonon": {
        "lowest_freq": -0.037698175723653804,
        "frequency": [
            -0.037698175723653804,
            -0.03174469248495181,
            -0.01901986443551822,
            0.8433271414815996,
            1.210197813954167,
            1.3547816266033261,
            1.4633230669670403,
            1.6910955171322857,
            2.0003981669777566,
            2.059063167848264,
            2.075018215413597,
            2.191672345425959,
            2.230386058484625,
            2.4060740040463813,
            2.5600161788714133,
            2.6483816259846606,
            3.136941196834217,
            3.1732044782592266,
            3.2272157665606542,
            3.2718063230838434,
            3.4068083289099285,
            3.4446794834728705,
            3.502453924768892,
            3.694898397588859,
            4.130016628612382,
            4.202847073434919,
            4.320210518293891,
            4.542743902779387,
            4.7153606210342085,
            4.73069250589366,
            4.847705527906329,
            5.036980665184349,
            5.154646274178118,
            5.3494977498557965,
            5.528968544238055,
            5.585785280187335,
            5.880298834468681,
            6.05769416770482,
            6.43309999289306,
            6.771185142758642,
            7.189844905403104,
            7.200194619608402,
            7.4954239866771735,
            7.618497603931839,
            8.208067619158381,
            8.243274841453326,
            8.28879703600143,
            8.69050203144549,
            9.005194677999029,
            9.21842464809555,
            9.224879180641306,
            9.25301491833843,
            10.870038012697247,
            11.31999953571618,
            11.337288222641883,
            11.687592550260078,
            11.728988402831282,
            11.926729241561908,
            12.958849678195937,
            12.999104817393516,
            14.285882224301057,
            14.461869623113982,
            14.74166996455589,
            14.830065354270651,
            15.869766506694594,
            15.909749608094991,
            15.953691319853972,
            16.058785247405996,
            16.675068533420372,
            16.87007706182537,
            17.321123151366834,
            17.65892205427176,
            17.778887659494906,
            18.135501383972056,
            18.24620140055917,
            19.774213680801672,
            21.283396442158626,
            21.505871536329582,
            21.5154167742559,
            22.070628132676738,
            22.118247272838538,
            22.21448636355814,
            22.42159767322352,
            22.589709565041563
        ]
    },
    "born_effective_charge": {
        "avg_abs_trace": 2.496511428571428,
        "tensors": [
            [
                [
                    3.04727,
                    -0.49664,
                    0.38732
                ],
                [
                    0.13184,
                    2.96106,
                    0.1145
                ],
                [
                    0.24624,
                    -0.15053,
                    2.14399
                ]
            ],
            [
                [
                    3.04731,
                    0.49635,
                    0.38742
                ],
                [
                    -0.13184,
                    2.96106,
                    -0.1145
                ],
                [
                    0.24626,
                    0.15093,
                    2.14381
                ]
            ],
            [
                [
                    3.04731,
                    -0.49635,
                    0.38742
                ],
                [
                    0.13188,
                    2.96109,
                    0.11453
                ],
                [
                    0.24626,
                    -0.15093,
                    2.14381
                ]
            ],
            [
                [
                    3.04727,
                    0.49664,
                    0.38732
                ],
                [
                    -0.13188,
                    2.96109,
                    -0.11453
                ],
                [
                    0.24624,
                    0.15053,
                    2.14399
                ]
            ],
            [
                [
                    3.22254,
                    0.70743,
                    -0.49999
                ],
                [
                    -0.1081,
                    3.32013,
                    0.48761
                ],
                [
                    -0.28603,
                    0.44801,
                    1.91134
                ]
            ],
            [
                [
                    3.22226,
                    -0.70752,
                    -0.50003
                ],
                [
                    0.1081,
                    3.32013,
                    -0.48761
                ],
                [
                    -0.28549,
                    -0.44804,
                    1.91114
                ]
            ],
            [
                [
                    3.22226,
                    0.70752,
                    -0.50003
                ],
                [
                    -0.10805,
                    3.32013,
                    0.48773
                ],
                [
                    -0.28549,
                    0.44804,
                    1.91114
                ]
            ],
            [
                [
                    3.22254,
                    -0.70743,
                    -0.49999
                ],
                [
                    0.10805,
                    3.32013,
                    -0.48773
                ],
                [
                    -0.28603,
                    -0.44801,
                    1.91134
                ]
            ],
            [
                [
                    2.80421,
                    0.19514,
                    0.00995
                ],
                [
                    0.2142,
                    3.1128,
                    0.14246
                ],
                [
                    -0.0301,
                    0.20994,
                    3.69024
                ]
            ],
            [
                [
                    2.80466,
                    -0.19512,
                    0.00998
                ],
                [
                    -0.2142,
                    3.1128,
                    -0.14246
                ],
                [
                    -0.03074,
                    -0.2097,
                    3.69005
                ]
            ],
            [
                [
                    2.80466,
                    0.19512,
                    0.00998
                ],
                [
                    0.21425,
                    3.1127,
                    0.14251
                ],
                [
                    -0.03074,
                    0.2097,
                    3.69005
                ]
            ],
            [
                [
                    2.80421,
                    -0.19514,
                    0.00995
                ],
                [
                    -0.21425,
                    3.1127,
                    -0.14251
                ],
                [
                    -0.0301,
                    -0.20994,
                    3.69024
                ]
            ],
            [
                [
                    -3.57,
                    -0.83861,
                    1.15119
                ],
                [
                    -0.39386,
                    -1.22782,
                    0.25064
                ],
                [
                    0.04175,
                    0.17438,
                    -1.3835
                ]
            ],
            [
                [
                    -3.56985,
                    0.83892,
                    1.15134
                ],
                [
                    0.39386,
                    -1.22782,
                    -0.25064
                ],
                [
                    0.04142,
                    -0.17461,
                    -1.38347
                ]
            ],
            [
                [
                    -3.56985,
                    -0.83892,
                    1.15134
                ],
                [
                    -0.39375,
                    -1.22788,
                    0.25075
                ],
                [
                    0.04142,
                    0.17461,
                    -1.38347
                ]
            ],
            [
                [
                    -3.57,
                    0.83861,
                    1.15119
                ],
                [
                    0.39375,
                    -1.22788,
                    -0.25075
                ],
                [
                    0.04175,
                    -0.17438,
                    -1.3835
                ]
            ],
            [
                [
                    -1.70183,
                    0.78545,
                    -0.08454
                ],
                [
                    1.07284,
                    -3.10206,
                    -0.83245
                ],
                [
                    0.28187,
                    -0.63551,
                    -1.48002
                ]
            ],
            [
                [
                    -1.70171,
                    -0.78533,
                    -0.08496
                ],
                [
                    -1.07284,
                    -3.10206,
                    0.83245
                ],
                [
                    0.28149,
                    0.63506,
                    -1.47903
                ]
            ],
            [
                [
                    -1.70171,
                    0.78533,
                    -0.08496
                ],
                [
                    1.07272,
                    -3.10204,
                    -0.8326
                ],
                [
                    0.28149,
                    -0.63506,
                    -1.47903
                ]
            ],
            [
                [
                    -1.70183,
                    -0.78545,
                    -0.08454
                ],
                [
                    -1.07272,
                    -3.10204,
                    0.8326
                ],
                [
                    0.28187,
                    0.63551,
                    -1.48002
                ]
            ],
            [
                [
                    -1.52688,
                    1.13982,
                    -0.40903
                ],
                [
                    0.72198,
                    -2.82238,
                    0.73607
                ],
                [
                    -0.06751,
                    0.28171,
                    -2.50042
                ]
            ],
            [
                [
                    -1.52703,
                    -1.13995,
                    -0.40923
                ],
                [
                    -0.72198,
                    -2.82238,
                    -0.73607
                ],
                [
                    -0.06736,
                    -0.28156,
                    -2.50049
                ]
            ],
            [
                [
                    -1.52703,
                    1.13995,
                    -0.40923
                ],
                [
                    0.72205,
                    -2.82244,
                    0.73617
                ],
                [
                    -0.06736,
                    0.28156,
                    -2.50049
                ]
            ],
            [
                [
                    -1.52688,
                    -1.13982,
                    -0.40903
                ],
                [
                    -0.72205,
                    -2.82244,
                    -0.73617
                ],
                [
                    -0.06751,
                    -0.28171,
                    -2.50042
                ]
            ],
            [
                [
                    -2.27546,
                    1.01902,
                    -0.55471
                ],
                [
                    1.108,
                    -2.24158,
                    0.70055
                ],
                [
                    -0.1858,
                    -0.15104,
                    -2.38179
                ]
            ],
            [
                [
                    -2.27549,
                    -1.01908,
                    -0.55471
                ],
                [
                    -1.108,
                    -2.24158,
                    -0.70055
                ],
                [
                    -0.18601,
                    0.15046,
                    -2.38186
                ]
            ],
            [
                [
                    -2.27549,
                    1.01908,
                    -0.55471
                ],
                [
                    1.10793,
                    -2.24172,
                    0.70043
                ],
                [
                    -0.18601,
                    -0.15046,
                    -2.38186
                ]
            ],
            [
                [
                    -2.27546,
                    -1.01902,
                    -0.55471
                ],
                [
                    -1.10793,
                    -2.24172,
                    -0.70043
                ],
                [
                    -0.1858,
                    0.15104,
                    -2.38179
                ]
            ]
        ]
    },
    "band_gap": 2.628,
    "is_direct": true,
    "formula": "As2PbO4"
}