{
    "mp_id": "mp-28918",
    "nelements": 3,
    "nsites": 18,
    "elements": [
        "O",
        "Sb",
        "W"
    ],
    "structure": {
        "@module": "pymatgen.core.structure",
        "@class": "Structure",
        "charge": null,
        "lattice": {
            "matrix": [
                [
                    5.52329538,
                    0.0,
                    0.00029781
                ],
                [
                    0.0,
                    4.94393752,
                    0.0
                ],
                [
                    -0.82980829,
                    0.0,
                    9.14605351
                ]
            ],
            "a": 5.523295388028794,
            "b": 4.94393752,
            "c": 9.183620016417057,
            "alpha": 90.0,
            "beta": 95.1810806980359,
            "gamma": 90.0,
            "volume": 249.75092510936187
        },
        "sites": [
            {
                "species": [
                    {
                        "element": "Sb",
                        "occu": 1
                    }
                ],
                "abc": [
                    0.10395572,
                    0.04240003,
                    0.66721804
                ],
                "xyz": [
                    0.02051508717102213,
                    0.20962309916612562,
                    6.102442855730293
                ],
                "label": "Sb",
                "properties": {}
            },
            {
                "species": [
                    {
                        "element": "Sb",
                        "occu": 1
                    }
                ],
                "abc": [
                    0.60581619,
                    0.45440492,
                    0.66562925
                ],
                "xyz": [
                    2.79375709363972,
                    2.2465495332605987,
                    6.088061156440711
                ],
                "label": "Sb",
                "properties": {}
            },
            {
                "species": [
                    {
                        "element": "Sb",
                        "occu": 1
                    }
                ],
                "abc": [
                    0.89604428,
                    0.54240003,
                    0.33278196
                ],
                "xyz": [
                    4.6729720028289785,
                    2.681591859166126,
                    3.0439084642697063
                ],
                "label": "Sb",
                "properties": {}
            },
            {
                "species": [
                    {
                        "element": "Sb",
                        "occu": 1
                    }
                ],
                "abc": [
                    0.39418381,
                    0.95440492,
                    0.33437075
                ],
                "xyz": [
                    1.8997299963602807,
                    4.7185182932605985,
                    3.0582901635592883
                ],
                "label": "Sb",
                "properties": {}
            },
            {
                "species": [
                    {
                        "element": "W",
                        "occu": 1
                    }
                ],
                "abc": [
                    0.25374899,
                    0.47412207,
                    0.00569731
                ],
                "xyz": [
                    1.3968029490779663,
                    2.344029890933067,
                    0.052183471109769994
                ],
                "label": "W",
                "properties": {}
            },
            {
                "species": [
                    {
                        "element": "W",
                        "occu": 1
                    }
                ],
                "abc": [
                    0.74625101,
                    0.97412207,
                    0.99430269
                ],
                "xyz": [
                    3.296684140922034,
                    4.815998650933067,
                    9.09416784889023
                ],
                "label": "W",
                "properties": {}
            },
            {
                "species": [
                    {
                        "element": "O",
                        "occu": 1
                    }
                ],
                "abc": [
                    0.97261123,
                    0.72653338,
                    0.94138981
                ],
                "xyz": [
                    4.590846044735593,
                    3.591935636914418,
                    8.61029122937914
                ],
                "label": "O",
                "properties": {}
            },
            {
                "species": [
                    {
                        "element": "O",
                        "occu": 1
                    }
                ],
                "abc": [
                    0.46977312,
                    0.77018086,
                    0.9403198
                ],
                "xyz": [
                    1.8144105380530438,
                    3.807726050939867,
                    8.600355110445365
                ],
                "label": "O",
                "properties": {}
            },
            {
                "species": [
                    {
                        "element": "O",
                        "occu": 1
                    }
                ],
                "abc": [
                    0.53022688,
                    0.27018086,
                    0.0596802
                ],
                "xyz": [
                    2.879076551946956,
                    1.3357572909398674,
                    0.5459962095546348
                ],
                "label": "O",
                "properties": {}
            },
            {
                "species": [
                    {
                        "element": "O",
                        "occu": 1
                    }
                ],
                "abc": [
                    0.02738877,
                    0.22653338,
                    0.05861019
                ],
                "xyz": [
                    0.1026410452644075,
                    1.1199668769144178,
                    0.5360600906208607
                ],
                "label": "O",
                "properties": {}
            },
            {
                "species": [
                    {
                        "element": "O",
                        "occu": 1
                    }
                ],
                "abc": [
                    0.25779032,
                    0.64718329,
                    0.19000662
                ],
                "xyz": [
                    1.266183015033842,
                    3.199633749748041,
                    1.7378874863094351
                ],
                "label": "O",
                "properties": {}
            },
            {
                "species": [
                    {
                        "element": "O",
                        "occu": 1
                    }
                ],
                "abc": [
                    0.23914239,
                    0.35416206,
                    0.80967793
                ],
                "xyz": [
                    0.6489765993051186,
                    1.7509550965944913,
                    7.4054288926412
                ],
                "label": "O",
                "properties": {}
            },
            {
                "species": [
                    {
                        "element": "O",
                        "occu": 1
                    }
                ],
                "abc": [
                    0.76085761,
                    0.85416206,
                    0.19032207
                ],
                "xyz": [
                    4.044510490694882,
                    4.222923856594491,
                    1.7409224273587998
                ],
                "label": "O",
                "properties": {}
            },
            {
                "species": [
                    {
                        "element": "O",
                        "occu": 1
                    }
                ],
                "abc": [
                    0.74220968,
                    0.14718329,
                    0.80999338
                ],
                "xyz": [
                    3.427304074966159,
                    0.7276649897480408,
                    7.408463833690564
                ],
                "label": "O",
                "properties": {}
            },
            {
                "species": [
                    {
                        "element": "O",
                        "occu": 1
                    }
                ],
                "abc": [
                    0.89133267,
                    0.31857541,
                    0.55848514
                ],
                "xyz": [
                    4.459658019240255,
                    1.5750169224483834,
                    5.108200422762295
                ],
                "label": "O",
                "properties": {}
            },
            {
                "species": [
                    {
                        "element": "O",
                        "occu": 1
                    }
                ],
                "abc": [
                    0.39310056,
                    0.17293298,
                    0.56205842
                ],
                "xyz": [
                    1.7048097705431111,
                    0.8549698482674096,
                    5.140733454343827
                ],
                "label": "O",
                "properties": {}
            },
            {
                "species": [
                    {
                        "element": "O",
                        "occu": 1
                    }
                ],
                "abc": [
                    0.10866733,
                    0.81857541,
                    0.44151486
                ],
                "xyz": [
                    0.23382907075974613,
                    4.046985682448383,
                    4.038150897237706
                ],
                "label": "O",
                "properties": {}
            },
            {
                "species": [
                    {
                        "element": "O",
                        "occu": 1
                    }
                ],
                "abc": [
                    0.60689944,
                    0.67293298,
                    0.43794158
                ],
                "xyz": [
                    2.988677319456889,
                    3.32693860826741,
                    4.005617865656172
                ],
                "label": "O",
                "properties": {}
            }
        ]
    },
    "spacegroup": {
        "source": "spglib",
        "symbol": "P2_1",
        "number": 4,
        "point_group": "2",
        "crystal_system": "monoclinic",
        "hall": "P 2yb"
    },
    "dielectric": {
        "epsilon_ionic": [
            [
                61.2715517,
                8.246e-05,
                -39.04166679
            ],
            [
                8.246e-05,
                30.16302066,
                -0.00040533
            ],
            [
                -39.04166679,
                -0.00040533,
                95.50555651
            ]
        ],
        "epsilon_ionic_avg": 62.313376290000015,
        "epsilon_ionic_eig": [
            121.01769340211509,
            35.75941481367773,
            30.16302065420724
        ],
        "epsilon_electronic": [
            [
                6.77685838,
                0.0,
                -0.62847799
            ],
            [
                0.0,
                5.96390689,
                0.0
            ],
            [
                -0.62847645,
                0.0,
                7.31800432
            ]
        ],
        "epsilon_electronic_avg": 6.6862565300000005,
        "epsilon_electronic_eig": [
            6.3631847949096905,
            7.73167790509031,
            5.96390689
        ]
    },
    "phonon": {
        "lowest_freq": -0.0610155540263556,
        "frequency": [
            -0.0610155540263556,
            -0.04286515789355323,
            -0.036433662636517455,
            1.4616245241354784,
            1.8552680178195713,
            2.154722327991374,
            2.372488021087732,
            2.7026869769463304,
            2.9590623172585424,
            3.294187581810544,
            3.8591389104442415,
            3.8951254170822174,
            4.428296743581938,
            4.751789598054022,
            4.871081892083339,
            5.120189109351014,
            5.206862495556746,
            5.234468395685874,
            5.3677790323996035,
            5.955396384138691,
            6.150440074848393,
            6.33061141779585,
            7.166307290846814,
            7.185322016833256,
            7.631853451150799,
            7.726119881748385,
            7.741010656148081,
            8.24294806483945,
            8.810622493729596,
            9.165087183815956,
            9.47900382975768,
            9.777796689325971,
            10.497157326148002,
            10.981728800799454,
            11.368271131282208,
            12.329322385464264,
            12.568881709336747,
            12.857716659099905,
            13.166375789408194,
            13.789495362606727,
            14.52122205324926,
            14.679578834038477,
            15.661444908590118,
            17.02989971742,
            17.65956228276921,
            18.06865035697392,
            18.3481796562088,
            18.97175497909029,
            19.040582465290218,
            20.106790617955205,
            20.451118083760342,
            21.089486756575194,
            23.060063092346166,
            27.568925827919628
        ]
    },
    "born_effective_charge": {
        "avg_abs_trace": 3.9984027777777778,
        "tensors": [
            [
                [
                    4.03373,
                    -0.15095,
                    -0.40677
                ],
                [
                    -0.16706,
                    3.59822,
                    0.83857
                ],
                [
                    -0.34949,
                    1.01001,
                    5.52953
                ]
            ],
            [
                [
                    3.94544,
                    0.24276,
                    -0.4019
                ],
                [
                    0.14576,
                    3.73401,
                    -0.87956
                ],
                [
                    -0.47778,
                    -1.06655,
                    5.40698
                ]
            ],
            [
                [
                    4.03375,
                    0.15089,
                    -0.40676
                ],
                [
                    0.16706,
                    3.59822,
                    -0.83857
                ],
                [
                    -0.3495,
                    -1.01005,
                    5.52931
                ]
            ],
            [
                [
                    3.94546,
                    -0.24276,
                    -0.40184
                ],
                [
                    -0.14576,
                    3.73401,
                    0.87956
                ],
                [
                    -0.47773,
                    1.0665,
                    5.40681
                ]
            ],
            [
                [
                    10.33496,
                    0.05109,
                    -0.50345
                ],
                [
                    -0.90899,
                    9.21582,
                    0.05781
                ],
                [
                    -0.42137,
                    1.58754,
                    8.18004
                ]
            ],
            [
                [
                    10.33492,
                    -0.05103,
                    -0.50342
                ],
                [
                    0.90899,
                    9.21582,
                    -0.05781
                ],
                [
                    -0.42133,
                    -1.58795,
                    8.17982
                ]
            ],
            [
                [
                    -4.4871,
                    2.71141,
                    0.01679
                ],
                [
                    2.50473,
                    -3.58009,
                    -0.03353
                ],
                [
                    0.10138,
                    -0.03816,
                    -1.32497
                ]
            ],
            [
                [
                    -4.70471,
                    -2.72936,
                    -0.16251
                ],
                [
                    -2.66275,
                    -3.68746,
                    -0.1169
                ],
                [
                    -0.07464,
                    -0.02416,
                    -1.37049
                ]
            ],
            [
                [
                    -4.70477,
                    2.72931,
                    -0.16259
                ],
                [
                    2.66275,
                    -3.68746,
                    0.1169
                ],
                [
                    -0.07495,
                    0.02437,
                    -1.3704
                ]
            ],
            [
                [
                    -4.48701,
                    -2.71137,
                    0.0168
                ],
                [
                    -2.50473,
                    -3.58009,
                    0.03353
                ],
                [
                    0.10128,
                    0.03819,
                    -1.32485
                ]
            ],
            [
                [
                    -1.94889,
                    -0.39579,
                    0.47984
                ],
                [
                    -0.15397,
                    -2.8241,
                    -1.96611
                ],
                [
                    0.2634,
                    -2.45173,
                    -4.683
                ]
            ],
            [
                [
                    -2.0096,
                    -0.55203,
                    0.36711
                ],
                [
                    -0.21054,
                    -2.40769,
                    -1.704
                ],
                [
                    0.31949,
                    -2.04069,
                    -5.15753
                ]
            ],
            [
                [
                    -2.00958,
                    0.55189,
                    0.36701
                ],
                [
                    0.21054,
                    -2.40769,
                    1.704
                ],
                [
                    0.31943,
                    2.04113,
                    -5.15716
                ]
            ],
            [
                [
                    -1.94891,
                    0.39592,
                    0.47991
                ],
                [
                    0.15397,
                    -2.8241,
                    1.96611
                ],
                [
                    0.2634,
                    2.45166,
                    -4.68308
                ]
            ],
            [
                [
                    -2.53994,
                    1.34935,
                    0.30765
                ],
                [
                    0.47251,
                    -2.0141,
                    1.16319
                ],
                [
                    0.30713,
                    0.89786,
                    -3.35611
                ]
            ],
            [
                [
                    -2.62396,
                    -1.43675,
                    0.30321
                ],
                [
                    -0.49098,
                    -2.03463,
                    -1.09021
                ],
                [
                    0.33208,
                    -0.81994,
                    -3.22434
                ]
            ],
            [
                [
                    -2.5399,
                    -1.34929,
                    0.3077
                ],
                [
                    -0.47251,
                    -2.0141,
                    -1.16319
                ],
                [
                    0.30708,
                    -0.89789,
                    -3.35622
                ]
            ],
            [
                [
                    -2.62389,
                    1.4367,
                    0.30322
                ],
                [
                    0.49098,
                    -2.03463,
                    1.09021
                ],
                [
                    0.33213,
                    0.81986,
                    -3.22435
                ]
            ]
        ]
    },
    "band_gap": 1.0356999999999994,
    "is_direct": false,
    "formula": "Sb2WO6"
}