{
    "mp_id": "mp-22186",
    "nelements": 4,
    "nsites": 18,
    "elements": [
        "Ge",
        "In",
        "O",
        "Pt"
    ],
    "structure": {
        "@module": "pymatgen.core.structure",
        "@class": "Structure",
        "charge": null,
        "lattice": {
            "matrix": [
                [
                    0.0,
                    5.0608305,
                    5.0608305
                ],
                [
                    5.0608305,
                    0.0,
                    5.0608305
                ],
                [
                    5.0608305,
                    5.0608305,
                    0.0
                ]
            ],
            "a": 7.157095129971411,
            "b": 7.157095129971411,
            "c": 7.157095129971411,
            "alpha": 60.00000000000001,
            "beta": 60.00000000000001,
            "gamma": 60.00000000000001,
            "volume": 259.23603568015596
        },
        "sites": [
            {
                "species": [
                    {
                        "element": "In",
                        "occu": 1
                    }
                ],
                "abc": [
                    0.26033864,
                    0.26033864,
                    0.73966136
                ],
                "xyz": [
                    5.0608305,
                    5.0608305,
                    2.63505945928104
                ],
                "label": "In",
                "properties": {}
            },
            {
                "species": [
                    {
                        "element": "In",
                        "occu": 1
                    }
                ],
                "abc": [
                    0.73966136,
                    0.26033864,
                    0.73966136
                ],
                "xyz": [
                    5.0608305,
                    7.486601540718961,
                    5.0608305
                ],
                "label": "In",
                "properties": {}
            },
            {
                "species": [
                    {
                        "element": "In",
                        "occu": 1
                    }
                ],
                "abc": [
                    0.26033864,
                    0.73966136,
                    0.26033864
                ],
                "xyz": [
                    5.0608305,
                    2.63505945928104,
                    5.0608305
                ],
                "label": "In",
                "properties": {}
            },
            {
                "species": [
                    {
                        "element": "In",
                        "occu": 1
                    }
                ],
                "abc": [
                    0.73966136,
                    0.73966136,
                    0.26033864
                ],
                "xyz": [
                    5.0608305,
                    5.0608305,
                    7.486601540718961
                ],
                "label": "In",
                "properties": {}
            },
            {
                "species": [
                    {
                        "element": "In",
                        "occu": 1
                    }
                ],
                "abc": [
                    0.26033864,
                    0.73966136,
                    0.73966136
                ],
                "xyz": [
                    7.486601540718961,
                    5.0608305,
                    5.0608305
                ],
                "label": "In",
                "properties": {}
            },
            {
                "species": [
                    {
                        "element": "In",
                        "occu": 1
                    }
                ],
                "abc": [
                    0.73966136,
                    0.26033864,
                    0.26033864
                ],
                "xyz": [
                    2.63505945928104,
                    5.0608305,
                    5.0608305
                ],
                "label": "In",
                "properties": {}
            },
            {
                "species": [
                    {
                        "element": "Ge",
                        "occu": 1
                    }
                ],
                "abc": [
                    0.25,
                    0.25,
                    0.25
                ],
                "xyz": [
                    2.53041525,
                    2.53041525,
                    2.53041525
                ],
                "label": "Ge",
                "properties": {}
            },
            {
                "species": [
                    {
                        "element": "Ge",
                        "occu": 1
                    }
                ],
                "abc": [
                    0.75,
                    0.75,
                    0.75
                ],
                "xyz": [
                    7.59124575,
                    7.59124575,
                    7.59124575
                ],
                "label": "Ge",
                "properties": {}
            },
            {
                "species": [
                    {
                        "element": "Pt",
                        "occu": 1
                    }
                ],
                "abc": [
                    0.0,
                    0.0,
                    0.0
                ],
                "xyz": [
                    0.0,
                    0.0,
                    0.0
                ],
                "label": "Pt",
                "properties": {}
            },
            {
                "species": [
                    {
                        "element": "O",
                        "occu": 1
                    }
                ],
                "abc": [
                    0.5,
                    0.5,
                    0.5
                ],
                "xyz": [
                    5.0608305,
                    5.0608305,
                    5.0608305
                ],
                "label": "O",
                "properties": {}
            },
            {
                "species": [
                    {
                        "element": "O",
                        "occu": 1
                    }
                ],
                "abc": [
                    0.64819633,
                    0.05541101,
                    0.64819633
                ],
                "xyz": [
                    3.56083748629587,
                    6.56082351370413,
                    3.56083748629587
                ],
                "label": "O",
                "properties": {}
            },
            {
                "species": [
                    {
                        "element": "O",
                        "occu": 1
                    }
                ],
                "abc": [
                    0.35180367,
                    0.35180367,
                    0.35180367
                ],
                "xyz": [
                    3.56083748629587,
                    3.56083748629587,
                    3.56083748629587
                ],
                "label": "O",
                "properties": {}
            },
            {
                "species": [
                    {
                        "element": "O",
                        "occu": 1
                    }
                ],
                "abc": [
                    0.94458899,
                    0.35180367,
                    0.35180367
                ],
                "xyz": [
                    3.56083748629587,
                    6.56082351370413,
                    6.56082351370413
                ],
                "label": "O",
                "properties": {}
            },
            {
                "species": [
                    {
                        "element": "O",
                        "occu": 1
                    }
                ],
                "abc": [
                    0.35180367,
                    0.35180367,
                    0.94458899
                ],
                "xyz": [
                    6.56082351370413,
                    6.56082351370413,
                    3.56083748629587
                ],
                "label": "O",
                "properties": {}
            },
            {
                "species": [
                    {
                        "element": "O",
                        "occu": 1
                    }
                ],
                "abc": [
                    0.35180367,
                    0.94458899,
                    0.35180367
                ],
                "xyz": [
                    6.56082351370413,
                    3.56083748629587,
                    6.56082351370413
                ],
                "label": "O",
                "properties": {}
            },
            {
                "species": [
                    {
                        "element": "O",
                        "occu": 1
                    }
                ],
                "abc": [
                    0.64819633,
                    0.64819633,
                    0.05541101
                ],
                "xyz": [
                    3.56083748629587,
                    3.56083748629587,
                    6.56082351370413
                ],
                "label": "O",
                "properties": {}
            },
            {
                "species": [
                    {
                        "element": "O",
                        "occu": 1
                    }
                ],
                "abc": [
                    0.64819633,
                    0.64819633,
                    0.64819633
                ],
                "xyz": [
                    6.56082351370413,
                    6.56082351370413,
                    6.56082351370413
                ],
                "label": "O",
                "properties": {}
            },
            {
                "species": [
                    {
                        "element": "O",
                        "occu": 1
                    }
                ],
                "abc": [
                    0.05541101,
                    0.64819633,
                    0.64819633
                ],
                "xyz": [
                    6.56082351370413,
                    3.56083748629587,
                    3.56083748629587
                ],
                "label": "O",
                "properties": {}
            }
        ]
    },
    "spacegroup": {
        "source": "spglib",
        "symbol": "Fm-3m",
        "number": 225,
        "point_group": "m-3m",
        "crystal_system": "cubic",
        "hall": "-F 4 2 3"
    },
    "dielectric": {
        "epsilon_ionic": [
            [
                10.31850476,
                1e-08,
                1e-08
            ],
            [
                1e-08,
                10.31831407,
                0.0
            ],
            [
                1e-08,
                0.0,
                10.31792066
            ]
        ],
        "epsilon_ionic_avg": 10.318246496666669,
        "epsilon_ionic_eig": [
            10.318504760000696,
            10.31792065999983,
            10.318314069999477
        ],
        "epsilon_electronic": [
            [
                7.14913874,
                -0.0,
                -0.0
            ],
            [
                -0.0,
                7.14913874,
                0.0
            ],
            [
                0.0,
                0.0,
                7.14913874
            ]
        ],
        "epsilon_electronic_avg": 7.149138740000001,
        "epsilon_electronic_eig": [
            7.14913874,
            7.14913874,
            7.14913874
        ]
    },
    "phonon": {
        "lowest_freq": -0.014433125049735962,
        "frequency": [
            -0.014433125049735962,
            -0.014433125041269323,
            -0.014433125041269323,
            2.2861415665737814,
            2.2861415665737814,
            2.2861415665737814,
            2.9404200350764826,
            2.9404200350764826,
            2.9404200350764826,
            3.272617059850503,
            3.272617059850503,
            3.272617059850503,
            3.8803770123860586,
            3.8803770123860586,
            3.8803770123860586,
            4.1109052230772045,
            4.1109052230772045,
            5.431225249674619,
            5.431225249674619,
            5.431225249674619,
            6.697126740323289,
            6.697126740323289,
            6.697126740323289,
            6.963099860183751,
            6.963099860183751,
            6.963099860183751,
            7.0485358520345125,
            7.837210098374343,
            7.837210098374343,
            7.837210098374343,
            9.252527070078687,
            9.252527070078687,
            9.252527070078687,
            9.886746337024517,
            9.886746337024517,
            9.886746337024517,
            10.67360969810558,
            10.67360969810558,
            11.00619619623439,
            11.00619619623439,
            11.00619619623439,
            11.75142262025377,
            11.75142262025377,
            11.75142262025377,
            12.195950176783077,
            12.195950176783077,
            21.503912120444355,
            21.503912120444355,
            21.503912120444355,
            22.121168898408886,
            22.121168898408886,
            22.121168898408886,
            22.216037678257898,
            22.700723041713776
        ]
    },
    "born_effective_charge": {
        "avg_abs_trace": 2.9286679629629626,
        "tensors": [
            [
                [
                    2.95624,
                    0.0,
                    0.00019
                ],
                [
                    0.0,
                    2.95622,
                    -8e-05
                ],
                [
                    0.0,
                    0.0,
                    4.13048
                ]
            ],
            [
                [
                    2.95624,
                    -0.00019,
                    0.0
                ],
                [
                    0.0,
                    4.13,
                    -0.0
                ],
                [
                    0.0,
                    3e-05,
                    2.9561
                ]
            ],
            [
                [
                    2.95624,
                    0.00019,
                    0.0
                ],
                [
                    0.0,
                    4.13032,
                    -0.0
                ],
                [
                    0.0,
                    -3e-05,
                    2.9561
                ]
            ],
            [
                [
                    2.95624,
                    0.0,
                    -0.00019
                ],
                [
                    0.0,
                    2.95622,
                    8e-05
                ],
                [
                    0.0,
                    0.0,
                    4.12987
                ]
            ],
            [
                [
                    4.13037,
                    0.0,
                    0.0
                ],
                [
                    8e-05,
                    2.95622,
                    -0.0
                ],
                [
                    3e-05,
                    0.0,
                    2.9561
                ]
            ],
            [
                [
                    4.13001,
                    0.0,
                    0.0
                ],
                [
                    -8e-05,
                    2.95622,
                    -0.0
                ],
                [
                    -3e-05,
                    0.0,
                    2.9561
                ]
            ],
            [
                [
                    3.13649,
                    0.0,
                    0.0
                ],
                [
                    0.0,
                    3.13644,
                    -0.0
                ],
                [
                    0.0,
                    0.0,
                    3.13645
                ]
            ],
            [
                [
                    3.13649,
                    0.0,
                    0.0
                ],
                [
                    0.0,
                    3.13644,
                    -0.0
                ],
                [
                    0.0,
                    0.0,
                    3.13645
                ]
            ],
            [
                [
                    -1.97704,
                    0.0,
                    0.0
                ],
                [
                    0.0,
                    -1.97707,
                    -0.0
                ],
                [
                    0.0,
                    0.0,
                    -1.97704
                ]
            ],
            [
                [
                    -3.07879,
                    0.0,
                    0.0
                ],
                [
                    0.0,
                    -3.07876,
                    -0.0
                ],
                [
                    0.0,
                    0.0,
                    -3.07864
                ]
            ],
            [
                [
                    -2.66273,
                    -0.08844,
                    0.08844
                ],
                [
                    -0.08808,
                    -2.66282,
                    -0.08808
                ],
                [
                    0.0884,
                    -0.0884,
                    -2.66274
                ]
            ],
            [
                [
                    -2.66273,
                    0.08844,
                    0.08844
                ],
                [
                    0.0884,
                    -2.66274,
                    0.0884
                ],
                [
                    0.0884,
                    0.0884,
                    -2.66274
                ]
            ],
            [
                [
                    -2.66273,
                    -0.08844,
                    -0.08844
                ],
                [
                    -0.08808,
                    -2.66282,
                    0.08808
                ],
                [
                    -0.08813,
                    0.08813,
                    -2.66275
                ]
            ],
            [
                [
                    -2.66289,
                    0.08808,
                    -0.08808
                ],
                [
                    0.08808,
                    -2.66282,
                    -0.08808
                ],
                [
                    -0.0884,
                    -0.0884,
                    -2.66274
                ]
            ],
            [
                [
                    -2.66289,
                    -0.08808,
                    0.08808
                ],
                [
                    -0.0884,
                    -2.66274,
                    -0.0884
                ],
                [
                    0.08813,
                    -0.08813,
                    -2.66275
                ]
            ],
            [
                [
                    -2.66273,
                    0.08844,
                    -0.08844
                ],
                [
                    0.0884,
                    -2.66274,
                    -0.0884
                ],
                [
                    -0.08813,
                    -0.08813,
                    -2.66275
                ]
            ],
            [
                [
                    -2.66289,
                    0.08808,
                    0.08808
                ],
                [
                    0.08808,
                    -2.66282,
                    0.08808
                ],
                [
                    0.08813,
                    0.08813,
                    -2.66275
                ]
            ],
            [
                [
                    -2.66289,
                    -0.08808,
                    -0.08808
                ],
                [
                    -0.0884,
                    -2.66274,
                    0.0884
                ],
                [
                    -0.0884,
                    0.0884,
                    -2.66274
                ]
            ]
        ]
    },
    "band_gap": 1.4474,
    "is_direct": false,
    "formula": "In6Ge2PtO9"
}