{
    "mp_id": "mp-28109",
    "nelements": 3,
    "nsites": 20,
    "elements": [
        "As",
        "O",
        "Sb"
    ],
    "structure": {
        "@module": "pymatgen.core.structure",
        "@class": "Structure",
        "charge": null,
        "lattice": {
            "matrix": [
                [
                    4.44650592,
                    0.0,
                    0.00024274
                ],
                [
                    0.0,
                    12.89418091,
                    0.0
                ],
                [
                    -3.90700878,
                    0.0,
                    5.41861122
                ]
            ],
            "a": 4.446505926625732,
            "b": 12.89418091,
            "c": 6.6802743327281835,
            "alpha": 90.0,
            "beta": 125.78979831331696,
            "gamma": 90.0,
            "volume": 310.68316477744855
        },
        "sites": [
            {
                "species": [
                    {
                        "element": "Sb",
                        "occu": 1
                    }
                ],
                "abc": [
                    0.32361294,
                    0.6438514,
                    0.33370387
                ],
                "xyz": [
                    0.13516290348862614,
                    8.301936430756774,
                    1.808290087944477
                ],
                "label": "Sb",
                "properties": {}
            },
            {
                "species": [
                    {
                        "element": "Sb",
                        "occu": 1
                    }
                ],
                "abc": [
                    0.67638706,
                    0.1438514,
                    0.16629613
                ],
                "xyz": [
                    2.3578386265113735,
                    1.8548459757567737,
                    0.901258262055523
                ],
                "label": "Sb",
                "properties": {}
            },
            {
                "species": [
                    {
                        "element": "Sb",
                        "occu": 1
                    }
                ],
                "abc": [
                    0.67638706,
                    0.3561486,
                    0.66629613
                ],
                "xyz": [
                    0.404334236511374,
                    4.5922444792432255,
                    3.6105638720555224
                ],
                "label": "Sb",
                "properties": {}
            },
            {
                "species": [
                    {
                        "element": "Sb",
                        "occu": 1
                    }
                ],
                "abc": [
                    0.32361294,
                    0.8561486,
                    0.83370387
                ],
                "xyz": [
                    -1.818341486511374,
                    11.039334934243225,
                    4.5175956979444765
                ],
                "label": "Sb",
                "properties": {}
            },
            {
                "species": [
                    {
                        "element": "As",
                        "occu": 1
                    }
                ],
                "abc": [
                    0.22935199,
                    0.90939609,
                    0.26839489
                ],
                "xyz": [
                    -0.028806210438353297,
                    11.72591770330664,
                    1.4543832352467183
                ],
                "label": "As",
                "properties": {}
            },
            {
                "species": [
                    {
                        "element": "As",
                        "occu": 1
                    }
                ],
                "abc": [
                    0.77064801,
                    0.40939609,
                    0.23160511
                ],
                "xyz": [
                    2.521807740438353,
                    5.278827248306642,
                    1.2551651147532816
                ],
                "label": "As",
                "properties": {}
            },
            {
                "species": [
                    {
                        "element": "As",
                        "occu": 1
                    }
                ],
                "abc": [
                    0.77064801,
                    0.09060391,
                    0.73160511
                ],
                "xyz": [
                    0.5683033504383537,
                    1.168263206693358,
                    3.9644707247532813
                ],
                "label": "As",
                "properties": {}
            },
            {
                "species": [
                    {
                        "element": "As",
                        "occu": 1
                    }
                ],
                "abc": [
                    0.22935199,
                    0.59060391,
                    0.76839489
                ],
                "xyz": [
                    -1.9823106004383535,
                    7.615353661693358,
                    4.1636888452467185
                ],
                "label": "As",
                "properties": {}
            },
            {
                "species": [
                    {
                        "element": "O",
                        "occu": 1
                    }
                ],
                "abc": [
                    0.86905217,
                    0.63757219,
                    0.46091149
                ],
                "xyz": [
                    2.063460380460964,
                    8.220971161044892,
                    2.4977111248646633
                ],
                "label": "O",
                "properties": {}
            },
            {
                "species": [
                    {
                        "element": "O",
                        "occu": 1
                    }
                ],
                "abc": [
                    0.13094783,
                    0.13757219,
                    0.03908851
                ],
                "xyz": [
                    0.42954114953903577,
                    1.773880706044893,
                    0.2118372251353364
                ],
                "label": "O",
                "properties": {}
            },
            {
                "species": [
                    {
                        "element": "O",
                        "occu": 1
                    }
                ],
                "abc": [
                    0.13094783,
                    0.36242781,
                    0.53908851
                ],
                "xyz": [
                    -1.5239632404609642,
                    4.673209748955107,
                    2.9211428351353366
                ],
                "label": "O",
                "properties": {}
            },
            {
                "species": [
                    {
                        "element": "O",
                        "occu": 1
                    }
                ],
                "abc": [
                    0.86905217,
                    0.86242781,
                    0.96091149
                ],
                "xyz": [
                    0.10995599046096416,
                    11.120300203955107,
                    5.207016734864664
                ],
                "label": "O",
                "properties": {}
            },
            {
                "species": [
                    {
                        "element": "O",
                        "occu": 1
                    }
                ],
                "abc": [
                    0.54469005,
                    0.91036779,
                    0.1800162
                ],
                "xyz": [
                    1.71864265794786,
                    11.738446978896889,
                    0.9755700191645009
                ],
                "label": "O",
                "properties": {}
            },
            {
                "species": [
                    {
                        "element": "O",
                        "occu": 1
                    }
                ],
                "abc": [
                    0.45530995,
                    0.41036779,
                    0.3199838
                ],
                "xyz": [
                    0.7743588720521399,
                    5.291356523896889,
                    1.7339783308354988
                ],
                "label": "O",
                "properties": {}
            },
            {
                "species": [
                    {
                        "element": "O",
                        "occu": 1
                    }
                ],
                "abc": [
                    0.45530995,
                    0.08963221,
                    0.8199838
                ],
                "xyz": [
                    -1.1791455179478603,
                    1.1557339311031112,
                    4.4432839408354985
                ],
                "label": "O",
                "properties": {}
            },
            {
                "species": [
                    {
                        "element": "O",
                        "occu": 1
                    }
                ],
                "abc": [
                    0.54469005,
                    0.58963221,
                    0.6800162
                ],
                "xyz": [
                    -0.23486173205213978,
                    7.60282438610311,
                    3.684875629164501
                ],
                "label": "O",
                "properties": {}
            },
            {
                "species": [
                    {
                        "element": "O",
                        "occu": 1
                    }
                ],
                "abc": [
                    0.37759027,
                    0.79156714,
                    0.44771146
                ],
                "xyz": [
                    -0.07025523423722047,
                    10.206609905571296,
                    2.4260659967407205
                ],
                "label": "O",
                "properties": {}
            },
            {
                "species": [
                    {
                        "element": "O",
                        "occu": 1
                    }
                ],
                "abc": [
                    0.62240973,
                    0.29156714,
                    0.05228854
                ],
                "xyz": [
                    2.56325676423722,
                    3.759519450571297,
                    0.283482353259279
                ],
                "label": "O",
                "properties": {}
            },
            {
                "species": [
                    {
                        "element": "O",
                        "occu": 1
                    }
                ],
                "abc": [
                    0.62240973,
                    0.20843286,
                    0.55228854
                ],
                "xyz": [
                    0.6097523742372202,
                    2.6875710044287024,
                    2.992787963259279
                ],
                "label": "O",
                "properties": {}
            },
            {
                "species": [
                    {
                        "element": "O",
                        "occu": 1
                    }
                ],
                "abc": [
                    0.37759027,
                    0.70843286,
                    0.94771146
                ],
                "xyz": [
                    -2.0237596242372202,
                    9.134661459428703,
                    5.135371606740721
                ],
                "label": "O",
                "properties": {}
            }
        ]
    },
    "spacegroup": {
        "source": "spglib",
        "symbol": "P2_1/c",
        "number": 14,
        "point_group": "2/m",
        "crystal_system": "monoclinic",
        "hall": "-P 2ybc"
    },
    "dielectric": {
        "epsilon_ionic": [
            [
                9.5849573,
                4e-08,
                -1.37932354
            ],
            [
                4e-08,
                6.65527733,
                -9e-08
            ],
            [
                -1.37932354,
                -9e-08,
                4.30627491
            ]
        ],
        "epsilon_ionic_avg": 6.848836513333334,
        "epsilon_ionic_eig": [
            9.923644877799582,
            3.96758733220042,
            6.655277329999999
        ],
        "epsilon_electronic": [
            [
                5.2744394,
                0.0,
                -0.22973747
            ],
            [
                0.0,
                5.00285986,
                0.0
            ],
            [
                -0.22974628,
                0.0,
                4.63984742
            ]
        ],
        "epsilon_electronic_avg": 4.972382226666667,
        "epsilon_electronic_eig": [
            5.34888066171241,
            4.56540615828759,
            5.00285986
        ]
    },
    "phonon": {
        "lowest_freq": -0.05574472399471146,
        "frequency": [
            -0.05574472399471146,
            -0.02614404573469477,
            -0.00900011117374907,
            1.1181332853268113,
            1.2981031748451024,
            1.472475791347057,
            1.5409523540125827,
            1.9986012054093634,
            2.256555731335862,
            2.303309083120306,
            2.324827231339404,
            2.3810764958393085,
            4.051019147059774,
            4.066418481851546,
            4.219254024344305,
            4.348991036185862,
            4.39385976643419,
            4.474511896646133,
            4.84330123936369,
            5.078168162149818,
            5.138496048622268,
            5.171514756235847,
            5.286019471348202,
            5.38075510675492,
            5.558109862976147,
            5.781764707417028,
            5.97182527162194,
            6.17779779048046,
            7.568627917439513,
            7.6966467893437445,
            8.166335361006068,
            8.208341788296625,
            9.117727752490739,
            9.129933480760306,
            9.768735462922116,
            9.857882367720078,
            11.596056835856833,
            11.959698582799113,
            12.060710165066638,
            12.12095559983358,
            12.534407844008328,
            12.611221955393509,
            13.36829390856674,
            13.709858757730897,
            15.086279332283747,
            15.181817458891379,
            15.451299832330319,
            15.701958250742884,
            17.530450232775458,
            17.539050145717585,
            17.67959375165806,
            17.720877424257242,
            18.145559893160943,
            18.268993306400336,
            19.947520326893095,
            20.317968282209108,
            20.889779248321297,
            21.56500563066716,
            21.848615447657536,
            23.213824549114396
        ]
    },
    "born_effective_charge": {
        "avg_abs_trace": 2.6924029999999997,
        "tensors": [
            [
                [
                    4.40987,
                    -0.01249,
                    -0.48926
                ],
                [
                    -0.17863,
                    3.72513,
                    -0.21805
                ],
                [
                    0.05794,
                    -0.47571,
                    3.20833
                ]
            ],
            [
                [
                    4.40962,
                    0.01242,
                    -0.48906
                ],
                [
                    0.17863,
                    3.72513,
                    0.21805
                ],
                [
                    0.05817,
                    0.4757,
                    3.20831
                ]
            ],
            [
                [
                    4.40962,
                    -0.01242,
                    -0.48906
                ],
                [
                    -0.17852,
                    3.72521,
                    -0.21807
                ],
                [
                    0.05817,
                    -0.4757,
                    3.20831
                ]
            ],
            [
                [
                    4.40987,
                    0.01249,
                    -0.48926
                ],
                [
                    0.17852,
                    3.72521,
                    0.21807
                ],
                [
                    0.05794,
                    0.47571,
                    3.20833
                ]
            ],
            [
                [
                    3.18375,
                    0.37493,
                    0.12628
                ],
                [
                    0.19446,
                    2.65832,
                    -0.72692
                ],
                [
                    -0.63206,
                    -0.64114,
                    3.00808
                ]
            ],
            [
                [
                    3.18371,
                    -0.3746,
                    0.1267
                ],
                [
                    -0.19446,
                    2.65832,
                    0.72692
                ],
                [
                    -0.63213,
                    0.64079,
                    3.00755
                ]
            ],
            [
                [
                    3.18371,
                    0.3746,
                    0.1267
                ],
                [
                    0.19467,
                    2.65817,
                    -0.72686
                ],
                [
                    -0.63213,
                    -0.64079,
                    3.00755
                ]
            ],
            [
                [
                    3.18375,
                    -0.37493,
                    0.12628
                ],
                [
                    -0.19467,
                    2.65817,
                    0.72686
                ],
                [
                    -0.63206,
                    0.64114,
                    3.00808
                ]
            ],
            [
                [
                    -3.29349,
                    0.33168,
                    -1.11881
                ],
                [
                    0.24294,
                    -1.1311,
                    0.13908
                ],
                [
                    -0.41738,
                    0.42425,
                    -2.33564
                ]
            ],
            [
                [
                    -3.29318,
                    -0.33132,
                    -1.11871
                ],
                [
                    -0.24294,
                    -1.1311,
                    -0.13908
                ],
                [
                    -0.41789,
                    -0.42466,
                    -2.33593
                ]
            ],
            [
                [
                    -3.29318,
                    0.33132,
                    -1.11871
                ],
                [
                    0.243,
                    -1.13105,
                    0.1391
                ],
                [
                    -0.41789,
                    0.42466,
                    -2.33593
                ]
            ],
            [
                [
                    -3.29349,
                    -0.33168,
                    -1.11881
                ],
                [
                    -0.243,
                    -1.13105,
                    -0.1391
                ],
                [
                    -0.41738,
                    -0.42425,
                    -2.33564
                ]
            ],
            [
                [
                    -3.16608,
                    0.19128,
                    1.11921
                ],
                [
                    -0.21799,
                    -1.41955,
                    -0.5213
                ],
                [
                    0.72473,
                    -0.32148,
                    -2.17454
                ]
            ],
            [
                [
                    -3.16635,
                    -0.19157,
                    1.11937
                ],
                [
                    0.21799,
                    -1.41955,
                    0.5213
                ],
                [
                    0.7252,
                    0.32135,
                    -2.17426
                ]
            ],
            [
                [
                    -3.16635,
                    0.19157,
                    1.11937
                ],
                [
                    -0.21793,
                    -1.41957,
                    -0.5214
                ],
                [
                    0.7252,
                    -0.32135,
                    -2.17426
                ]
            ],
            [
                [
                    -3.16608,
                    -0.19128,
                    1.11921
                ],
                [
                    0.21793,
                    -1.41957,
                    0.5214
                ],
                [
                    0.72473,
                    0.32148,
                    -2.17454
                ]
            ],
            [
                [
                    -1.13405,
                    0.21361,
                    0.36235
                ],
                [
                    0.28845,
                    -3.83266,
                    -0.10706
                ],
                [
                    0.26685,
                    0.91326,
                    -1.70614
                ]
            ],
            [
                [
                    -1.1338,
                    -0.21332,
                    0.36192
                ],
                [
                    -0.28845,
                    -3.83266,
                    0.10706
                ],
                [
                    0.26657,
                    -0.91358,
                    -1.70576
                ]
            ],
            [
                [
                    -1.1338,
                    0.21332,
                    0.36192
                ],
                [
                    0.28838,
                    -3.83289,
                    -0.1071
                ],
                [
                    0.26657,
                    0.91358,
                    -1.70576
                ]
            ],
            [
                [
                    -1.13405,
                    -0.21361,
                    0.36235
                ],
                [
                    -0.28838,
                    -3.83289,
                    0.1071
                ],
                [
                    0.26685,
                    -0.91326,
                    -1.70614
                ]
            ]
        ]
    },
    "band_gap": 3.3026,
    "is_direct": false,
    "formula": "SbAsO3"
}