{
    "mp_id": "mp-21126",
    "nelements": 3,
    "nsites": 18,
    "elements": [
        "O",
        "Pb",
        "V"
    ],
    "structure": {
        "@module": "pymatgen.core.structure",
        "@class": "Structure",
        "charge": null,
        "lattice": {
            "matrix": [
                [
                    7.95673787,
                    -1.83191487,
                    -0.00191856
                ],
                [
                    7.95673787,
                    1.83191487,
                    -0.00191856
                ],
                [
                    -3.09498672,
                    0.0,
                    8.89561968
                ]
            ],
            "a": 8.164900079222754,
            "b": 8.164900079222754,
            "c": 9.418651298788996,
            "alpha": 108.68991134015808,
            "beta": 108.68991134015808,
            "gamma": 25.93103911004754,
            "volume": 259.30453109919324
        },
        "sites": [
            {
                "species": [
                    {
                        "element": "V",
                        "occu": 1
                    }
                ],
                "abc": [
                    0.40372461,
                    0.40372461,
                    0.65948143
                ],
                "xyz": [
                    4.3835755189393515,
                    0.0,
                    5.864946847527019
                ],
                "label": "V",
                "properties": {}
            },
            {
                "species": [
                    {
                        "element": "V",
                        "occu": 1
                    }
                ],
                "abc": [
                    0.59627539,
                    0.59627539,
                    0.34051857
                ],
                "xyz": [
                    8.434913501060649,
                    0.0,
                    3.0268357124729808
                ],
                "label": "V",
                "properties": {}
            },
            {
                "species": [
                    {
                        "element": "V",
                        "occu": 1
                    }
                ],
                "abc": [
                    0.16610082,
                    0.16610082,
                    0.13912191
                ],
                "xyz": [
                    2.2126609055530717,
                    0.0,
                    1.2369382517367502
                ],
                "label": "V",
                "properties": {}
            },
            {
                "species": [
                    {
                        "element": "V",
                        "occu": 1
                    }
                ],
                "abc": [
                    0.83389918,
                    0.83389918,
                    0.86087809
                ],
                "xyz": [
                    10.605828114446929,
                    0.0,
                    7.654844308263249
                ],
                "label": "V",
                "properties": {}
            },
            {
                "species": [
                    {
                        "element": "Pb",
                        "occu": 1
                    }
                ],
                "abc": [
                    0.12680117,
                    0.12680117,
                    0.72369328
                ],
                "xyz": [
                    -0.22197374835462558,
                    0.0,
                    6.43721363254632
                ],
                "label": "Pb",
                "properties": {}
            },
            {
                "species": [
                    {
                        "element": "Pb",
                        "occu": 1
                    }
                ],
                "abc": [
                    0.87319883,
                    0.87319883,
                    0.27630672
                ],
                "xyz": [
                    13.040462768354626,
                    0.0,
                    2.45456892745368
                ],
                "label": "Pb",
                "properties": {}
            },
            {
                "species": [
                    {
                        "element": "O",
                        "occu": 1
                    }
                ],
                "abc": [
                    0.33365083,
                    0.33365083,
                    0.80017542
                ],
                "xyz": [
                    2.8330120902654423,
                    0.0,
                    7.116775955331455
                ],
                "label": "O",
                "properties": {}
            },
            {
                "species": [
                    {
                        "element": "O",
                        "occu": 1
                    }
                ],
                "abc": [
                    0.66634917,
                    0.66634917,
                    0.19982458
                ],
                "xyz": [
                    9.98547692973456,
                    0.0,
                    1.7750066046685438
                ],
                "label": "O",
                "properties": {}
            },
            {
                "species": [
                    {
                        "element": "O",
                        "occu": 1
                    }
                ],
                "abc": [
                    0.10437535,
                    0.10437535,
                    0.29033018
                ],
                "xyz": [
                    0.7624065485637995,
                    0.0,
                    2.58226636216295
                ],
                "label": "O",
                "properties": {}
            },
            {
                "species": [
                    {
                        "element": "O",
                        "occu": 1
                    }
                ],
                "abc": [
                    0.89562465,
                    0.89562465,
                    0.70966982
                ],
                "xyz": [
                    12.056082471436202,
                    0.0,
                    6.309516197837049
                ],
                "label": "O",
                "properties": {}
            },
            {
                "species": [
                    {
                        "element": "O",
                        "occu": 1
                    }
                ],
                "abc": [
                    0.34945677,
                    0.34945677,
                    0.47644383
                ],
                "xyz": [
                    4.086484504897823,
                    0.0,
                    4.236922203001272
                ],
                "label": "O",
                "properties": {}
            },
            {
                "species": [
                    {
                        "element": "O",
                        "occu": 1
                    }
                ],
                "abc": [
                    0.65054323,
                    0.65054323,
                    0.52355617
                ],
                "xyz": [
                    8.73200451510218,
                    0.0,
                    4.654860356998728
                ],
                "label": "O",
                "properties": {}
            },
            {
                "species": [
                    {
                        "element": "O",
                        "occu": 1
                    }
                ],
                "abc": [
                    0.89837836,
                    0.89837836,
                    0.03805066
                ],
                "xyz": [
                    14.178555949813752,
                    0.0,
                    0.33503701436026556
                ],
                "label": "O",
                "properties": {}
            },
            {
                "species": [
                    {
                        "element": "O",
                        "occu": 1
                    }
                ],
                "abc": [
                    0.10162164,
                    0.10162164,
                    0.96194934
                ],
                "xyz": [
                    -1.360066929813751,
                    0.0,
                    8.556745545639734
                ],
                "label": "O",
                "properties": {}
            },
            {
                "species": [
                    {
                        "element": "O",
                        "occu": 1
                    }
                ],
                "abc": [
                    0.51413588,
                    0.51413588,
                    0.68351269
                ],
                "xyz": [
                    6.066226154942075,
                    0.0,
                    6.078296135625873
                ],
                "label": "O",
                "properties": {}
            },
            {
                "species": [
                    {
                        "element": "O",
                        "occu": 1
                    }
                ],
                "abc": [
                    0.2739857,
                    0.2739857,
                    0.14464329
                ],
                "xyz": [
                    3.912395728369809,
                    0.0,
                    1.2856403810947632
                ],
                "label": "O",
                "properties": {}
            },
            {
                "species": [
                    {
                        "element": "O",
                        "occu": 1
                    }
                ],
                "abc": [
                    0.7260143,
                    0.7260143,
                    0.85535671
                ],
                "xyz": [
                    8.90609329163019,
                    0.0,
                    7.606142178905236
                ],
                "label": "O",
                "properties": {}
            },
            {
                "species": [
                    {
                        "element": "O",
                        "occu": 1
                    }
                ],
                "abc": [
                    0.48586412,
                    0.48586412,
                    0.31648731
                ],
                "xyz": [
                    6.752262865057926,
                    0.0,
                    2.8134864243741267
                ],
                "label": "O",
                "properties": {}
            }
        ]
    },
    "spacegroup": {
        "source": "spglib",
        "symbol": "C2/m",
        "number": 12,
        "point_group": "2/m",
        "crystal_system": "monoclinic",
        "hall": "-C 2y"
    },
    "dielectric": {
        "epsilon_ionic": [
            [
                11.462051,
                1.9e-07,
                1.09289978
            ],
            [
                1.9e-07,
                21.28575524,
                1e-08
            ],
            [
                1.09289978,
                1e-08,
                8.81858832
            ]
        ],
        "epsilon_ionic_avg": 13.85546485333333,
        "epsilon_ionic_eig": [
            11.855371747915179,
            8.425267572084808,
            21.285755240000007
        ],
        "epsilon_electronic": [
            [
                5.75859805,
                0.0,
                0.10674997
            ],
            [
                0.0,
                5.77091826,
                0.0
            ],
            [
                0.10674766,
                0.0,
                5.13676571
            ]
        ],
        "epsilon_electronic_avg": 5.555427339999999,
        "epsilon_electronic_eig": [
            5.776413038045657,
            5.118950721954342,
            5.77091826
        ]
    },
    "phonon": {
        "lowest_freq": -0.2932119142474587,
        "frequency": [
            -0.2932119142474587,
            -0.07589018052662776,
            -0.020218810271709683,
            0.6494437639869759,
            1.2599851056756368,
            1.5441311665977286,
            2.096672757183473,
            2.380104609799769,
            2.498285528216007,
            2.5740329350069455,
            2.6798114311840915,
            2.8969717525194487,
            3.398535588864127,
            3.6236260640380893,
            3.628607177532658,
            4.159300064860084,
            4.78804600371459,
            4.811811164163441,
            5.773131753276743,
            5.969215166470597,
            6.8304092543482335,
            6.851162640177995,
            7.264611282352844,
            7.284066477750839,
            7.497014921052355,
            7.519582786346394,
            8.068545794472783,
            8.523527950874564,
            8.528944591718794,
            8.622643911052084,
            9.51938644906886,
            9.65814617657413,
            9.734102437088962,
            9.820243709375365,
            10.656147837807485,
            10.691962335359602,
            11.711842005492562,
            12.042085080265055,
            14.670527310137604,
            14.675696525871148,
            15.90239397482181,
            15.915184402490818,
            16.87438905958289,
            17.247882660875916,
            21.02800793711515,
            21.031437428690946,
            23.076887238975402,
            23.236491625700435,
            24.878804384847122,
            26.256652015571476,
            26.4118938637795,
            26.887401105872794,
            27.85910373759903,
            29.324020988326666
        ]
    },
    "born_effective_charge": {
        "avg_abs_trace": 2.9961212962962964,
        "tensors": [
            [
                [
                    4.958,
                    0.0,
                    -0.40651
                ],
                [
                    0.00124,
                    5.96119,
                    -0.00122
                ],
                [
                    0.57676,
                    0.0,
                    3.82673
                ]
            ],
            [
                [
                    4.95819,
                    0.0,
                    -0.40666
                ],
                [
                    -0.00124,
                    5.96119,
                    0.00122
                ],
                [
                    0.57661,
                    0.0,
                    3.82704
                ]
            ],
            [
                [
                    4.83651,
                    0.0,
                    -0.91393
                ],
                [
                    0.00108,
                    5.7274,
                    -0.00109
                ],
                [
                    0.81194,
                    0.0,
                    3.75082
                ]
            ],
            [
                [
                    4.83693,
                    0.0,
                    -0.91419
                ],
                [
                    -0.00108,
                    5.7274,
                    0.00109
                ],
                [
                    0.81102,
                    0.0,
                    3.75086
                ]
            ],
            [
                [
                    3.53593,
                    0.0,
                    0.90526
                ],
                [
                    -5e-05,
                    3.92034,
                    -4e-05
                ],
                [
                    -0.58841,
                    0.0,
                    3.93015
                ]
            ],
            [
                [
                    3.53595,
                    0.0,
                    0.90513
                ],
                [
                    5e-05,
                    3.92034,
                    4e-05
                ],
                [
                    -0.58855,
                    0.0,
                    3.9303
                ]
            ],
            [
                [
                    -1.78307,
                    0.0,
                    1.21732
                ],
                [
                    -0.00015,
                    -4.85503,
                    -0.00071
                ],
                [
                    0.73622,
                    0.0,
                    -1.09256
                ]
            ],
            [
                [
                    -1.78308,
                    0.0,
                    1.21748
                ],
                [
                    0.00015,
                    -4.85503,
                    0.00071
                ],
                [
                    0.7364,
                    0.0,
                    -1.0929
                ]
            ],
            [
                [
                    -1.82155,
                    0.0,
                    1.40431
                ],
                [
                    0.00022,
                    -5.08144,
                    -0.00075
                ],
                [
                    0.73129,
                    0.0,
                    -1.26022
                ]
            ],
            [
                [
                    -1.82182,
                    0.0,
                    1.40428
                ],
                [
                    -0.00022,
                    -5.08144,
                    0.00075
                ],
                [
                    0.7316,
                    0.0,
                    -1.25956
                ]
            ],
            [
                [
                    -0.51919,
                    0.0,
                    -0.31834
                ],
                [
                    -0.00018,
                    -1.17822,
                    0.00051
                ],
                [
                    -0.18431,
                    0.0,
                    -3.528
                ]
            ],
            [
                [
                    -0.51937,
                    0.0,
                    -0.31863
                ],
                [
                    0.00018,
                    -1.17822,
                    -0.00051
                ],
                [
                    -0.18396,
                    0.0,
                    -3.52858
                ]
            ],
            [
                [
                    -0.62576,
                    0.0,
                    -0.28436
                ],
                [
                    0.00015,
                    -0.56481,
                    -0.0002
                ],
                [
                    -0.19257,
                    0.0,
                    -4.12167
                ]
            ],
            [
                [
                    -0.62583,
                    0.0,
                    -0.28507
                ],
                [
                    -0.00015,
                    -0.56481,
                    0.0002
                ],
                [
                    -0.19353,
                    0.0,
                    -4.12273
                ]
            ],
            [
                [
                    -4.5601,
                    0.0,
                    -0.69904
                ],
                [
                    -0.00086,
                    -1.92088,
                    -0.00013
                ],
                [
                    -0.88785,
                    0.0,
                    -0.61712
                ]
            ],
            [
                [
                    -4.02055,
                    0.0,
                    -0.90405
                ],
                [
                    -0.00075,
                    -2.00854,
                    -0.0003
                ],
                [
                    -1.00238,
                    0.0,
                    -0.88806
                ]
            ],
            [
                [
                    -4.02131,
                    0.0,
                    -0.90399
                ],
                [
                    0.00075,
                    -2.00854,
                    0.0003
                ],
                [
                    -1.00265,
                    0.0,
                    -0.88768
                ]
            ],
            [
                [
                    -4.55991,
                    0.0,
                    -0.699
                ],
                [
                    0.00086,
                    -1.92088,
                    0.00013
                ],
                [
                    -0.88764,
                    0.0,
                    -0.61682
                ]
            ]
        ]
    },
    "band_gap": 2.0851,
    "is_direct": false,
    "formula": "V2PbO6"
}