{
    "mp_id": "mp-29792",
    "nelements": 3,
    "nsites": 28,
    "elements": [
        "Ca",
        "Nb",
        "O"
    ],
    "structure": {
        "@module": "pymatgen.core.structure",
        "@class": "Structure",
        "charge": null,
        "lattice": {
            "matrix": [
                [
                    5.10877185,
                    0.0,
                    0.0
                ],
                [
                    0.0,
                    11.86517891,
                    0.0
                ],
                [
                    0.0,
                    0.0,
                    5.90525457
                ]
            ],
            "a": 5.10877185,
            "b": 11.86517891,
            "c": 5.90525457,
            "alpha": 90.0,
            "beta": 90.0,
            "gamma": 90.0,
            "volume": 357.95581646309216
        },
        "sites": [
            {
                "species": [
                    {
                        "element": "Ca",
                        "occu": 1
                    }
                ],
                "abc": [
                    0.68980077,
                    0.49582531,
                    0.25
                ],
                "xyz": [
                    3.5240347558843244,
                    5.883056011256212,
                    1.4763136425
                ],
                "label": "Ca",
                "properties": {}
            },
            {
                "species": [
                    {
                        "element": "Ca",
                        "occu": 1
                    }
                ],
                "abc": [
                    0.68980077,
                    0.00417469,
                    0.75
                ],
                "xyz": [
                    3.5240347558843244,
                    0.049533443743787896,
                    4.4289409275
                ],
                "label": "Ca",
                "properties": {}
            },
            {
                "species": [
                    {
                        "element": "Ca",
                        "occu": 1
                    }
                ],
                "abc": [
                    0.31019923,
                    0.50417469,
                    0.75
                ],
                "xyz": [
                    1.5847370941156755,
                    5.982122898743788,
                    4.4289409275
                ],
                "label": "Ca",
                "properties": {}
            },
            {
                "species": [
                    {
                        "element": "Ca",
                        "occu": 1
                    }
                ],
                "abc": [
                    0.31019923,
                    0.99582531,
                    0.25
                ],
                "xyz": [
                    1.5847370941156755,
                    11.81564546625621,
                    1.4763136425
                ],
                "label": "Ca",
                "properties": {}
            },
            {
                "species": [
                    {
                        "element": "Nb",
                        "occu": 1
                    }
                ],
                "abc": [
                    0.84422413,
                    0.25,
                    0.0
                ],
                "xyz": [
                    4.3129484704347405,
                    2.9662947275,
                    0.0
                ],
                "label": "Nb",
                "properties": {}
            },
            {
                "species": [
                    {
                        "element": "Nb",
                        "occu": 1
                    }
                ],
                "abc": [
                    0.15577587,
                    0.75,
                    0.5
                ],
                "xyz": [
                    0.7958233795652596,
                    8.8988841825,
                    2.952627285
                ],
                "label": "Nb",
                "properties": {}
            },
            {
                "species": [
                    {
                        "element": "Nb",
                        "occu": 1
                    }
                ],
                "abc": [
                    0.15577587,
                    0.75,
                    0.0
                ],
                "xyz": [
                    0.7958233795652596,
                    8.8988841825,
                    0.0
                ],
                "label": "Nb",
                "properties": {}
            },
            {
                "species": [
                    {
                        "element": "Nb",
                        "occu": 1
                    }
                ],
                "abc": [
                    0.84422413,
                    0.25,
                    0.5
                ],
                "xyz": [
                    4.3129484704347405,
                    2.9662947275,
                    2.952627285
                ],
                "label": "Nb",
                "properties": {}
            },
            {
                "species": [
                    {
                        "element": "Nb",
                        "occu": 1
                    }
                ],
                "abc": [
                    0.65909406,
                    0.74597747,
                    0.75
                ],
                "xyz": [
                    3.367161180230211,
                    8.851156144379157,
                    4.4289409275
                ],
                "label": "Nb",
                "properties": {}
            },
            {
                "species": [
                    {
                        "element": "Nb",
                        "occu": 1
                    }
                ],
                "abc": [
                    0.65909406,
                    0.75402253,
                    0.25
                ],
                "xyz": [
                    3.367161180230211,
                    8.94661222062084,
                    1.4763136425
                ],
                "label": "Nb",
                "properties": {}
            },
            {
                "species": [
                    {
                        "element": "Nb",
                        "occu": 1
                    }
                ],
                "abc": [
                    0.34090594,
                    0.25402253,
                    0.25
                ],
                "xyz": [
                    1.741610669769789,
                    3.0140227656208425,
                    1.4763136425
                ],
                "label": "Nb",
                "properties": {}
            },
            {
                "species": [
                    {
                        "element": "Nb",
                        "occu": 1
                    }
                ],
                "abc": [
                    0.34090594,
                    0.24597747,
                    0.75
                ],
                "xyz": [
                    1.741610669769789,
                    2.9185666893791575,
                    4.4289409275
                ],
                "label": "Nb",
                "properties": {}
            },
            {
                "species": [
                    {
                        "element": "O",
                        "occu": 1
                    }
                ],
                "abc": [
                    0.98492249,
                    0.85830984,
                    0.75
                ],
                "xyz": [
                    5.031744291343906,
                    10.183999811813473,
                    4.4289409275
                ],
                "label": "O",
                "properties": {}
            },
            {
                "species": [
                    {
                        "element": "O",
                        "occu": 1
                    }
                ],
                "abc": [
                    0.98492249,
                    0.64169016,
                    0.25
                ],
                "xyz": [
                    5.031744291343906,
                    7.613768553186525,
                    1.4763136425
                ],
                "label": "O",
                "properties": {}
            },
            {
                "species": [
                    {
                        "element": "O",
                        "occu": 1
                    }
                ],
                "abc": [
                    0.01507751,
                    0.14169016,
                    0.25
                ],
                "xyz": [
                    0.07702755865609351,
                    1.6811790981865256,
                    1.4763136425
                ],
                "label": "O",
                "properties": {}
            },
            {
                "species": [
                    {
                        "element": "O",
                        "occu": 1
                    }
                ],
                "abc": [
                    0.01507751,
                    0.35830984,
                    0.75
                ],
                "xyz": [
                    0.07702755865609351,
                    4.251410356813474,
                    4.4289409275
                ],
                "label": "O",
                "properties": {}
            },
            {
                "species": [
                    {
                        "element": "O",
                        "occu": 1
                    }
                ],
                "abc": [
                    0.99483344,
                    0.63820198,
                    0.75
                ],
                "xyz": [
                    5.0823770737106635,
                    7.572380673416241,
                    4.4289409275
                ],
                "label": "O",
                "properties": {}
            },
            {
                "species": [
                    {
                        "element": "O",
                        "occu": 1
                    }
                ],
                "abc": [
                    0.99483344,
                    0.86179802,
                    0.25
                ],
                "xyz": [
                    5.0823770737106635,
                    10.225387691583759,
                    1.4763136425
                ],
                "label": "O",
                "properties": {}
            },
            {
                "species": [
                    {
                        "element": "O",
                        "occu": 1
                    }
                ],
                "abc": [
                    0.00516656,
                    0.36179802,
                    0.25
                ],
                "xyz": [
                    0.026394776289335998,
                    4.292798236583758,
                    1.4763136425
                ],
                "label": "O",
                "properties": {}
            },
            {
                "species": [
                    {
                        "element": "O",
                        "occu": 1
                    }
                ],
                "abc": [
                    0.00516656,
                    0.13820198,
                    0.75
                ],
                "xyz": [
                    0.026394776289335998,
                    1.6397912184162418,
                    4.4289409275
                ],
                "label": "O",
                "properties": {}
            },
            {
                "species": [
                    {
                        "element": "O",
                        "occu": 1
                    }
                ],
                "abc": [
                    0.507981,
                    0.36405198,
                    0.99520248
                ],
                "xyz": [
                    2.59515903313485,
                    4.319541875239741,
                    5.876923993095334
                ],
                "label": "O",
                "properties": {}
            },
            {
                "species": [
                    {
                        "element": "O",
                        "occu": 1
                    }
                ],
                "abc": [
                    0.507981,
                    0.13594802,
                    0.00479752
                ],
                "xyz": [
                    2.59515903313485,
                    1.6130475797602581,
                    0.028330576904666404
                ],
                "label": "O",
                "properties": {}
            },
            {
                "species": [
                    {
                        "element": "O",
                        "occu": 1
                    }
                ],
                "abc": [
                    0.492019,
                    0.63594802,
                    0.49520248
                ],
                "xyz": [
                    2.51361281686515,
                    7.545637034760257,
                    2.924296708095334
                ],
                "label": "O",
                "properties": {}
            },
            {
                "species": [
                    {
                        "element": "O",
                        "occu": 1
                    }
                ],
                "abc": [
                    0.492019,
                    0.86405198,
                    0.50479752
                ],
                "xyz": [
                    2.51361281686515,
                    10.252131330239742,
                    2.9809578619046664
                ],
                "label": "O",
                "properties": {}
            },
            {
                "species": [
                    {
                        "element": "O",
                        "occu": 1
                    }
                ],
                "abc": [
                    0.507981,
                    0.13594802,
                    0.49520248
                ],
                "xyz": [
                    2.59515903313485,
                    1.6130475797602581,
                    2.924296708095334
                ],
                "label": "O",
                "properties": {}
            },
            {
                "species": [
                    {
                        "element": "O",
                        "occu": 1
                    }
                ],
                "abc": [
                    0.507981,
                    0.36405198,
                    0.50479752
                ],
                "xyz": [
                    2.59515903313485,
                    4.319541875239741,
                    2.9809578619046664
                ],
                "label": "O",
                "properties": {}
            },
            {
                "species": [
                    {
                        "element": "O",
                        "occu": 1
                    }
                ],
                "abc": [
                    0.492019,
                    0.86405198,
                    0.99520248
                ],
                "xyz": [
                    2.51361281686515,
                    10.252131330239742,
                    5.876923993095334
                ],
                "label": "O",
                "properties": {}
            },
            {
                "species": [
                    {
                        "element": "O",
                        "occu": 1
                    }
                ],
                "abc": [
                    0.492019,
                    0.63594802,
                    0.00479752
                ],
                "xyz": [
                    2.51361281686515,
                    7.545637034760257,
                    0.028330576904666404
                ],
                "label": "O",
                "properties": {}
            }
        ]
    },
    "spacegroup": {
        "source": "spglib",
        "symbol": "Pbcm",
        "number": 57,
        "point_group": "mmm",
        "crystal_system": "orthorhombic",
        "hall": "-P 2c 2b"
    },
    "dielectric": {
        "epsilon_ionic": [
            [
                3.16058458,
                -0.0,
                -5.7e-07
            ],
            [
                -0.0,
                4.11912534,
                -5e-08
            ],
            [
                -5.7e-07,
                -5e-08,
                4.04187981
            ]
        ],
        "epsilon_ionic_avg": 3.773863243333333,
        "epsilon_ionic_eig": [
            3.1605845799996315,
            4.041879810000337,
            4.119125340000031
        ],
        "epsilon_electronic": [
            [
                11.69037367,
                0.0,
                0.0
            ],
            [
                0.0,
                4.26739863,
                0.0
            ],
            [
                0.0,
                0.0,
                11.61406385
            ]
        ],
        "epsilon_electronic_avg": 9.19061205,
        "epsilon_electronic_eig": [
            11.69037367,
            4.26739863,
            11.61406385
        ]
    },
    "phonon": {
        "lowest_freq": -0.09165522289582649,
        "frequency": [
            -0.09165522289582649,
            -0.04720515619937798,
            -0.01307442790881757,
            1.5998225313276349,
            2.000764165911476,
            4.079839221789759,
            4.288677885069285,
            4.379097891032947,
            4.950416514288409,
            5.557152074506143,
            5.718884891817922,
            5.996047465044476,
            6.016746413800068,
            6.307703353411737,
            6.421152837550227,
            6.562839194893566,
            6.985086659176267,
            7.0685441059177325,
            7.189437069937916,
            7.224723789052856,
            7.267203265269438,
            7.5417598776632016,
            7.779724071874508,
            7.861452671123252,
            7.880366015611954,
            8.005039227223895,
            8.228655194370624,
            8.574372707598862,
            9.202471907449317,
            9.636617345433022,
            9.715792835638386,
            9.88006150126669,
            10.150215281906531,
            10.273599980617355,
            10.60948015753593,
            10.610670879861265,
            12.292678377665988,
            12.323091486315846,
            12.4350577101339,
            12.449068335367055,
            12.615528631136348,
            12.705584864351485,
            12.72094875146131,
            12.780962685803317,
            13.075260879239874,
            13.084928310639519,
            13.165385055860915,
            13.195839235576754,
            13.251385432668798,
            13.265911229805335,
            13.57544362364435,
            13.596037749964127,
            13.596713705448598,
            13.603439765776626,
            13.652151837796657,
            13.680141120369708,
            13.733112898090326,
            13.822504648705129,
            13.833221810050452,
            13.923762113116497,
            13.98718681716182,
            14.006611398400041,
            14.056283474850863,
            14.152822558775224,
            14.36531655255924,
            14.367043519134858,
            14.45635195083963,
            14.558594590432792,
            14.565681531242166,
            14.743649265065681,
            14.746080931875849,
            15.26538413913335,
            15.364225662730068,
            15.409269312796074,
            15.56163898245549,
            15.904457481654086,
            16.22421490569355,
            16.38998326714692,
            16.4708949522213,
            17.25477605520396,
            18.5580537136212,
            18.88857315344767,
            19.43930215094825,
            20.62221547047949
        ]
    },
    "born_effective_charge": {
        "avg_abs_trace": 1.9747469047619046,
        "tensors": [
            [
                [
                    2.02554,
                    -0.02021,
                    0.0
                ],
                [
                    -0.03088,
                    4.18785,
                    0.0
                ],
                [
                    0.00011,
                    -0.00022,
                    1.99323
                ]
            ],
            [
                [
                    2.02554,
                    0.02021,
                    0.0
                ],
                [
                    0.03118,
                    4.18788,
                    0.0
                ],
                [
                    0.00011,
                    0.00022,
                    1.99323
                ]
            ],
            [
                [
                    2.0254,
                    -0.02004,
                    0.0
                ],
                [
                    -0.03118,
                    4.18788,
                    0.0
                ],
                [
                    -0.00011,
                    0.00022,
                    1.99323
                ]
            ],
            [
                [
                    2.0254,
                    0.02004,
                    0.0
                ],
                [
                    0.03088,
                    4.18785,
                    0.0
                ],
                [
                    -0.00011,
                    -0.00022,
                    1.99323
                ]
            ],
            [
                [
                    2.31702,
                    0.0,
                    0.0
                ],
                [
                    -3e-05,
                    1.26054,
                    -0.09197
                ],
                [
                    0.00331,
                    -0.17307,
                    2.51508
                ]
            ],
            [
                [
                    2.31854,
                    0.0,
                    0.0
                ],
                [
                    3e-05,
                    1.26054,
                    0.09197
                ],
                [
                    -0.00331,
                    0.17307,
                    2.51508
                ]
            ],
            [
                [
                    2.31854,
                    0.0,
                    0.0
                ],
                [
                    3e-05,
                    1.26054,
                    -0.09197
                ],
                [
                    -0.00331,
                    -0.17307,
                    2.51508
                ]
            ],
            [
                [
                    2.31702,
                    0.0,
                    0.0
                ],
                [
                    -3e-05,
                    1.26054,
                    0.09197
                ],
                [
                    0.00331,
                    0.17307,
                    2.51508
                ]
            ],
            [
                [
                    2.69549,
                    -0.00585,
                    0.0
                ],
                [
                    0.01095,
                    1.23731,
                    0.0
                ],
                [
                    -0.00139,
                    -0.0003,
                    2.50384
                ]
            ],
            [
                [
                    2.69549,
                    0.00585,
                    0.0
                ],
                [
                    -0.01094,
                    1.23741,
                    0.0
                ],
                [
                    -0.00139,
                    0.0003,
                    2.50384
                ]
            ],
            [
                [
                    2.69187,
                    -0.00545,
                    0.0
                ],
                [
                    0.01094,
                    1.23741,
                    0.0
                ],
                [
                    0.00139,
                    0.0003,
                    2.50384
                ]
            ],
            [
                [
                    2.69187,
                    0.00545,
                    0.0
                ],
                [
                    -0.01095,
                    1.23731,
                    0.0
                ],
                [
                    0.00139,
                    -0.0003,
                    2.50384
                ]
            ],
            [
                [
                    -1.87441,
                    0.41326,
                    0.0
                ],
                [
                    0.28824,
                    -1.53327,
                    0.0
                ],
                [
                    0.00094,
                    -0.00058,
                    -1.62207
                ]
            ],
            [
                [
                    -1.87441,
                    -0.41326,
                    0.0
                ],
                [
                    -0.28797,
                    -1.53316,
                    0.0
                ],
                [
                    0.00094,
                    0.00058,
                    -1.62207
                ]
            ],
            [
                [
                    -1.87301,
                    0.41392,
                    0.0
                ],
                [
                    0.28797,
                    -1.53316,
                    0.0
                ],
                [
                    -0.00094,
                    0.00058,
                    -1.62207
                ]
            ],
            [
                [
                    -1.87301,
                    -0.41392,
                    0.0
                ],
                [
                    -0.28824,
                    -1.53327,
                    0.0
                ],
                [
                    -0.00094,
                    -0.00058,
                    -1.62207
                ]
            ],
            [
                [
                    -1.95711,
                    0.26438,
                    0.0
                ],
                [
                    0.27856,
                    -1.55445,
                    0.0
                ],
                [
                    0.00119,
                    0.0007,
                    -1.73121
                ]
            ],
            [
                [
                    -1.95711,
                    -0.26438,
                    0.0
                ],
                [
                    -0.27878,
                    -1.55338,
                    0.0
                ],
                [
                    0.00119,
                    -0.0007,
                    -1.73121
                ]
            ],
            [
                [
                    -1.95597,
                    0.26382,
                    0.0
                ],
                [
                    0.27878,
                    -1.55338,
                    0.0
                ],
                [
                    -0.00119,
                    -0.0007,
                    -1.73121
                ]
            ],
            [
                [
                    -1.95597,
                    -0.26382,
                    0.0
                ],
                [
                    -0.27856,
                    -1.55445,
                    0.0
                ],
                [
                    -0.00119,
                    0.0007,
                    -1.73121
                ]
            ],
            [
                [
                    -1.60257,
                    0.05584,
                    -0.07311
                ],
                [
                    0.01798,
                    -1.79934,
                    0.04716
                ],
                [
                    -0.11249,
                    0.05186,
                    -1.82938
                ]
            ],
            [
                [
                    -1.60257,
                    -0.05584,
                    0.07311
                ],
                [
                    -0.01806,
                    -1.7993,
                    0.04724
                ],
                [
                    0.11043,
                    0.0533,
                    -1.82948
                ]
            ],
            [
                [
                    -1.60411,
                    0.05631,
                    0.07299
                ],
                [
                    0.01806,
                    -1.7993,
                    -0.04724
                ],
                [
                    0.11249,
                    -0.05186,
                    -1.82938
                ]
            ],
            [
                [
                    -1.60411,
                    -0.05631,
                    -0.07299
                ],
                [
                    -0.01798,
                    -1.79934,
                    -0.04716
                ],
                [
                    -0.11043,
                    -0.0533,
                    -1.82948
                ]
            ],
            [
                [
                    -1.60257,
                    -0.05584,
                    -0.07311
                ],
                [
                    -0.01806,
                    -1.7993,
                    -0.04724
                ],
                [
                    -0.11249,
                    -0.05186,
                    -1.82938
                ]
            ],
            [
                [
                    -1.60257,
                    0.05584,
                    0.07311
                ],
                [
                    0.01798,
                    -1.79934,
                    -0.04716
                ],
                [
                    0.11043,
                    -0.0533,
                    -1.82948
                ]
            ],
            [
                [
                    -1.60411,
                    -0.05631,
                    0.07299
                ],
                [
                    -0.01798,
                    -1.79934,
                    0.04716
                ],
                [
                    0.11249,
                    0.05186,
                    -1.82938
                ]
            ],
            [
                [
                    -1.60411,
                    0.05631,
                    -0.07299
                ],
                [
                    0.01806,
                    -1.7993,
                    0.04724
                ],
                [
                    -0.11043,
                    0.0533,
                    -1.82948
                ]
            ]
        ]
    },
    "band_gap": 1.3386000000000005,
    "is_direct": false,
    "formula": "CaNb2O4"
}