{
    "mp_id": "mp-27931",
    "nelements": 3,
    "nsites": 20,
    "elements": [
        "O",
        "Rb",
        "Sn"
    ],
    "structure": {
        "@module": "pymatgen.core.structure",
        "@class": "Structure",
        "charge": null,
        "lattice": {
            "matrix": [
                [
                    5.744255,
                    0.0,
                    0.0
                ],
                [
                    0.0,
                    7.46156287,
                    0.0
                ],
                [
                    0.0,
                    0.0,
                    11.18206212
                ]
            ],
            "a": 5.744255,
            "b": 7.46156287,
            "c": 11.18206212,
            "alpha": 90.0,
            "beta": 90.0,
            "gamma": 90.0,
            "volume": 479.2757044026275
        },
        "sites": [
            {
                "species": [
                    {
                        "element": "Rb",
                        "occu": 1
                    }
                ],
                "abc": [
                    0.00450178,
                    0.63714661,
                    0.73649196
                ],
                "xyz": [
                    0.025859372273900002,
                    4.754109487922371,
                    8.235498847600555
                ],
                "label": "Rb",
                "properties": {}
            },
            {
                "species": [
                    {
                        "element": "Rb",
                        "occu": 1
                    }
                ],
                "abc": [
                    0.49549822,
                    0.36285339,
                    0.23649196
                ],
                "xyz": [
                    2.8462681277260997,
                    2.707453382077629,
                    2.644467787600555
                ],
                "label": "Rb",
                "properties": {}
            },
            {
                "species": [
                    {
                        "element": "Rb",
                        "occu": 1
                    }
                ],
                "abc": [
                    0.99364878,
                    0.60948155,
                    0.41507411
                ],
                "xyz": [
                    5.7077719727589,
                    4.547684903430048,
                    4.641384482423713
                ],
                "label": "Rb",
                "properties": {}
            },
            {
                "species": [
                    {
                        "element": "Rb",
                        "occu": 1
                    }
                ],
                "abc": [
                    0.50635122,
                    0.39051845,
                    0.91507411
                ],
                "xyz": [
                    2.9086105272411,
                    2.9138779665699515,
                    10.232415542423713
                ],
                "label": "Rb",
                "properties": {}
            },
            {
                "species": [
                    {
                        "element": "Rb",
                        "occu": 1
                    }
                ],
                "abc": [
                    0.00635122,
                    0.10948155,
                    0.08492589
                ],
                "xyz": [
                    0.0364830272411,
                    0.8169034684300485,
                    0.9496465775762868
                ],
                "label": "Rb",
                "properties": {}
            },
            {
                "species": [
                    {
                        "element": "Rb",
                        "occu": 1
                    }
                ],
                "abc": [
                    0.49364878,
                    0.89051845,
                    0.58492589
                ],
                "xyz": [
                    2.8356444727589,
                    6.644659401569951,
                    6.540677637576286
                ],
                "label": "Rb",
                "properties": {}
            },
            {
                "species": [
                    {
                        "element": "Rb",
                        "occu": 1
                    }
                ],
                "abc": [
                    0.50450178,
                    0.86285339,
                    0.26350804
                ],
                "xyz": [
                    2.8979868722739,
                    6.438234817077629,
                    2.9465632723994446
                ],
                "label": "Rb",
                "properties": {}
            },
            {
                "species": [
                    {
                        "element": "Rb",
                        "occu": 1
                    }
                ],
                "abc": [
                    0.99549822,
                    0.13714661,
                    0.76350804
                ],
                "xyz": [
                    5.7183956277261,
                    1.0233280529223707,
                    8.537594332399445
                ],
                "label": "Rb",
                "properties": {}
            },
            {
                "species": [
                    {
                        "element": "Sn",
                        "occu": 1
                    }
                ],
                "abc": [
                    0.5051575,
                    0.88807624,
                    0.94230661
                ],
                "xyz": [
                    2.9017534951625,
                    6.626436698113208,
                    10.536931049106613
                ],
                "label": "Sn",
                "properties": {}
            },
            {
                "species": [
                    {
                        "element": "Sn",
                        "occu": 1
                    }
                ],
                "abc": [
                    0.4948425,
                    0.38807624,
                    0.55769339
                ],
                "xyz": [
                    2.8425015048375,
                    2.8956552631132086,
                    6.236162130893386
                ],
                "label": "Sn",
                "properties": {}
            },
            {
                "species": [
                    {
                        "element": "Sn",
                        "occu": 1
                    }
                ],
                "abc": [
                    0.9948425,
                    0.11192376,
                    0.44230661
                ],
                "xyz": [
                    5.7146290048375,
                    0.8351261718867912,
                    4.945899989106612
                ],
                "label": "Sn",
                "properties": {}
            },
            {
                "species": [
                    {
                        "element": "Sn",
                        "occu": 1
                    }
                ],
                "abc": [
                    0.0051575,
                    0.61192376,
                    0.05769339
                ],
                "xyz": [
                    0.0296259951625,
                    4.565907606886792,
                    0.6451310708933867
                ],
                "label": "Sn",
                "properties": {}
            },
            {
                "species": [
                    {
                        "element": "O",
                        "occu": 1
                    }
                ],
                "abc": [
                    0.35548742,
                    0.69107878,
                    0.05153182
                ],
                "xyz": [
                    2.0420103897721,
                    5.156527765092899,
                    0.5762320123966583
                ],
                "label": "O",
                "properties": {}
            },
            {
                "species": [
                    {
                        "element": "O",
                        "occu": 1
                    }
                ],
                "abc": [
                    0.48566703,
                    0.58599971,
                    0.43520446
                ],
                "xyz": [
                    2.78979526541265,
                    4.3724736779667674,
                    4.866483306621055
                ],
                "label": "O",
                "properties": {}
            },
            {
                "species": [
                    {
                        "element": "O",
                        "occu": 1
                    }
                ],
                "abc": [
                    0.98566703,
                    0.91400029,
                    0.56479554
                ],
                "xyz": [
                    5.66192276541265,
                    6.819870627033232,
                    6.315578813378944
                ],
                "label": "O",
                "properties": {}
            },
            {
                "species": [
                    {
                        "element": "O",
                        "occu": 1
                    }
                ],
                "abc": [
                    0.14451258,
                    0.30892122,
                    0.55153182
                ],
                "xyz": [
                    0.8301171102279,
                    2.3050351049071014,
                    6.167263072396658
                ],
                "label": "O",
                "properties": {}
            },
            {
                "species": [
                    {
                        "element": "O",
                        "occu": 1
                    }
                ],
                "abc": [
                    0.51433297,
                    0.08599971,
                    0.06479554
                ],
                "xyz": [
                    2.95445973458735,
                    0.6416922429667676,
                    0.7245477533789447
                ],
                "label": "O",
                "properties": {}
            },
            {
                "species": [
                    {
                        "element": "O",
                        "occu": 1
                    }
                ],
                "abc": [
                    0.64451258,
                    0.19107878,
                    0.44846818
                ],
                "xyz": [
                    3.7022446102279,
                    1.4257463300928985,
                    5.014799047603342
                ],
                "label": "O",
                "properties": {}
            },
            {
                "species": [
                    {
                        "element": "O",
                        "occu": 1
                    }
                ],
                "abc": [
                    0.85548742,
                    0.80892122,
                    0.94846818
                ],
                "xyz": [
                    4.9141378897721,
                    6.035816539907101,
                    10.60583010760334
                ],
                "label": "O",
                "properties": {}
            },
            {
                "species": [
                    {
                        "element": "O",
                        "occu": 1
                    }
                ],
                "abc": [
                    0.01433297,
                    0.41400029,
                    0.93520446
                ],
                "xyz": [
                    0.08233223458735,
                    3.0890891920332324,
                    10.457514366621055
                ],
                "label": "O",
                "properties": {}
            }
        ]
    },
    "spacegroup": {
        "source": "spglib",
        "symbol": "P2_12_12_1",
        "number": 19,
        "point_group": "222",
        "crystal_system": "orthorhombic",
        "hall": "P 2ac 2ab"
    },
    "dielectric": {
        "epsilon_ionic": [
            [
                6.71822449,
                3e-08,
                -4e-08
            ],
            [
                3e-08,
                6.61311833,
                -2e-08
            ],
            [
                -4e-08,
                -2e-08,
                3.65491571
            ]
        ],
        "epsilon_ionic_avg": 5.662086176666668,
        "epsilon_ionic_eig": [
            6.71822449000001,
            3.6549157100000005,
            6.613118329999994
        ],
        "epsilon_electronic": [
            [
                3.90016151,
                0.0,
                0.0
            ],
            [
                0.0,
                3.94976262,
                0.0
            ],
            [
                0.0,
                0.0,
                3.80108355
            ]
        ],
        "epsilon_electronic_avg": 3.8836692266666666,
        "epsilon_electronic_eig": [
            3.90016151,
            3.94976262,
            3.80108355
        ]
    },
    "phonon": {
        "lowest_freq": -0.05569393513267893,
        "frequency": [
            -0.05569393513267893,
            -0.04603796652673058,
            -0.035853696605947505,
            0.9434396730182935,
            1.1552641393308698,
            1.166228440124502,
            1.2497777669428582,
            1.3281066287923518,
            1.3502182630583,
            1.4483138862339164,
            1.462759708861097,
            1.7586090146888624,
            1.7714855380578165,
            2.0837648585237862,
            2.1225079306920223,
            2.141451385646154,
            2.198252572421649,
            2.313615161640188,
            2.3445970442909334,
            2.426017123758189,
            2.5892386092051884,
            2.5924977672816207,
            2.7257233025382,
            2.762862391834384,
            2.7996277980160302,
            2.884519590507707,
            3.0552580146378254,
            3.0831822981236687,
            3.1015551397721346,
            3.3623017560364556,
            3.5386822892285696,
            3.637224358852478,
            4.043889137012587,
            4.219589089570938,
            4.383251802260715,
            4.430505015360887,
            4.742915865725231,
            4.758178123526324,
            5.143481137796586,
            5.201086071784069,
            6.8519422961314955,
            6.906786259591628,
            7.2478061410707575,
            7.320633137500456,
            8.000938243437208,
            8.1948101504879,
            8.779036547745674,
            8.889150354563105,
            9.250661931623108,
            9.348581006127096,
            10.827518380135919,
            11.241249017542946,
            14.187679996637785,
            14.214683404614387,
            14.580277445272749,
            14.863391996165449,
            16.14164852699732,
            16.2445882554727,
            17.186049461886636,
            17.720098041001254
        ]
    },
    "born_effective_charge": {
        "avg_abs_trace": 1.6582273333333333,
        "tensors": [
            [
                [
                    1.01932,
                    -0.02788,
                    -0.04552
                ],
                [
                    -0.05915,
                    1.21483,
                    -0.00763
                ],
                [
                    -0.10455,
                    0.00179,
                    1.59416
                ]
            ],
            [
                [
                    1.0193,
                    -0.028,
                    0.04572
                ],
                [
                    -0.05913,
                    1.21474,
                    0.00755
                ],
                [
                    0.10455,
                    -0.00179,
                    1.59416
                ]
            ],
            [
                [
                    1.2863,
                    -0.01088,
                    -0.00461
                ],
                [
                    -0.05453,
                    1.39864,
                    -0.00214
                ],
                [
                    0.02667,
                    0.01904,
                    0.85797
                ]
            ],
            [
                [
                    1.28643,
                    -0.01077,
                    0.00464
                ],
                [
                    -0.05421,
                    1.39869,
                    0.00234
                ],
                [
                    -0.02667,
                    -0.01904,
                    0.85797
                ]
            ],
            [
                [
                    1.28643,
                    0.01077,
                    -0.00464
                ],
                [
                    0.05453,
                    1.39864,
                    0.00214
                ],
                [
                    0.02669,
                    -0.01896,
                    0.85793
                ]
            ],
            [
                [
                    1.2863,
                    0.01088,
                    0.00461
                ],
                [
                    0.05421,
                    1.39869,
                    -0.00234
                ],
                [
                    -0.02669,
                    0.01896,
                    0.85793
                ]
            ],
            [
                [
                    1.01932,
                    0.02788,
                    0.04552
                ],
                [
                    0.05913,
                    1.21474,
                    -0.00755
                ],
                [
                    0.10459,
                    0.00188,
                    1.59411
                ]
            ],
            [
                [
                    1.0193,
                    0.028,
                    -0.04572
                ],
                [
                    0.05915,
                    1.21483,
                    0.00763
                ],
                [
                    -0.10459,
                    -0.00188,
                    1.59411
                ]
            ],
            [
                [
                    2.15289,
                    0.19987,
                    -0.36171
                ],
                [
                    -0.20976,
                    1.61797,
                    0.15075
                ],
                [
                    0.11084,
                    0.04473,
                    1.29474
                ]
            ],
            [
                [
                    2.15258,
                    -0.19982,
                    -0.36118
                ],
                [
                    0.20976,
                    1.61797,
                    -0.15075
                ],
                [
                    0.11081,
                    -0.04455,
                    1.29464
                ]
            ],
            [
                [
                    2.15258,
                    0.19982,
                    0.36118
                ],
                [
                    -0.20993,
                    1.61816,
                    -0.15105
                ],
                [
                    -0.11084,
                    -0.04473,
                    1.29474
                ]
            ],
            [
                [
                    2.15289,
                    -0.19987,
                    0.36171
                ],
                [
                    0.20993,
                    1.61816,
                    0.15105
                ],
                [
                    -0.11081,
                    0.04455,
                    1.29464
                ]
            ],
            [
                [
                    -2.97746,
                    -1.07905,
                    0.81654
                ],
                [
                    -0.8544,
                    -1.86544,
                    0.69679
                ],
                [
                    0.22321,
                    0.34493,
                    -1.57365
                ]
            ],
            [
                [
                    -1.48122,
                    0.01923,
                    0.00028
                ],
                [
                    0.08343,
                    -2.36604,
                    0.91094
                ],
                [
                    -0.14086,
                    0.43101,
                    -2.17309
                ]
            ],
            [
                [
                    -1.48122,
                    -0.01923,
                    -0.00028
                ],
                [
                    -0.08348,
                    -2.36571,
                    0.91076
                ],
                [
                    0.14094,
                    0.43114,
                    -2.17309
                ]
            ],
            [
                [
                    -2.97703,
                    -1.07954,
                    -0.8174
                ],
                [
                    -0.85455,
                    -1.86585,
                    -0.69682
                ],
                [
                    -0.22321,
                    -0.34493,
                    -1.57365
                ]
            ],
            [
                [
                    -1.48112,
                    -0.01886,
                    0.00088
                ],
                [
                    -0.08343,
                    -2.36604,
                    -0.91094
                ],
                [
                    -0.14094,
                    -0.43114,
                    -2.17309
                ]
            ],
            [
                [
                    -2.97703,
                    1.07954,
                    0.8174
                ],
                [
                    0.8544,
                    -1.86544,
                    -0.69679
                ],
                [
                    0.22321,
                    -0.34501,
                    -1.57372
                ]
            ],
            [
                [
                    -2.97746,
                    1.07905,
                    -0.81654
                ],
                [
                    0.85455,
                    -1.86585,
                    0.69682
                ],
                [
                    -0.22321,
                    0.34501,
                    -1.57372
                ]
            ],
            [
                [
                    -1.48112,
                    0.01886,
                    -0.00088
                ],
                [
                    0.08348,
                    -2.36571,
                    -0.91076
                ],
                [
                    0.14086,
                    -0.43101,
                    -2.17309
                ]
            ]
        ]
    },
    "band_gap": 2.2388,
    "is_direct": true,
    "formula": "Rb2SnO2"
}