{
    "mp_id": "mp-29521",
    "nelements": 3,
    "nsites": 8,
    "elements": [
        "Bi",
        "O",
        "Rb"
    ],
    "structure": {
        "@module": "pymatgen.core.structure",
        "@class": "Structure",
        "charge": null,
        "lattice": {
            "matrix": [
                [
                    4.01794579,
                    -4.18450622,
                    -0.0008254
                ],
                [
                    4.01794579,
                    4.18450622,
                    -0.0008254
                ],
                [
                    -3.3491923,
                    0.0,
                    4.97807588
                ]
            ],
            "a": 5.801205164263937,
            "b": 5.801205164263937,
            "c": 5.999860709167927,
            "alpha": 112.75170775863724,
            "beta": 112.75170775863724,
            "gamma": 92.32659535142368,
            "volume": 167.3708303219542
        },
        "sites": [
            {
                "species": [
                    {
                        "element": "Rb",
                        "occu": 1
                    }
                ],
                "abc": [
                    0.3661818,
                    0.6338182,
                    0.75
                ],
                "xyz": [
                    1.506051565,
                    1.119926180498408,
                    3.73273151
                ],
                "label": "Rb",
                "properties": {}
            },
            {
                "species": [
                    {
                        "element": "Rb",
                        "occu": 1
                    }
                ],
                "abc": [
                    0.6338182,
                    0.3661818,
                    0.25
                ],
                "xyz": [
                    3.1806477149999997,
                    -1.119926180498408,
                    1.2436935699999998
                ],
                "label": "Rb",
                "properties": {}
            },
            {
                "species": [
                    {
                        "element": "Bi",
                        "occu": 1
                    }
                ],
                "abc": [
                    0.09851097,
                    0.90148903,
                    0.25
                ],
                "xyz": [
                    3.1806477149999997,
                    3.360066686593534,
                    1.2436935699999998
                ],
                "label": "Bi",
                "properties": {}
            },
            {
                "species": [
                    {
                        "element": "Bi",
                        "occu": 1
                    }
                ],
                "abc": [
                    0.90148903,
                    0.09851097,
                    0.75
                ],
                "xyz": [
                    1.506051565,
                    -3.360066686593534,
                    3.73273151
                ],
                "label": "Bi",
                "properties": {}
            },
            {
                "species": [
                    {
                        "element": "O",
                        "occu": 1
                    }
                ],
                "abc": [
                    0.12345534,
                    0.2483152,
                    0.21408286
                ],
                "xyz": [
                    0.7767492097650485,
                    0.5224768607983293,
                    1.0654138622837006
                ],
                "label": "O",
                "properties": {}
            },
            {
                "species": [
                    {
                        "element": "O",
                        "occu": 1
                    }
                ],
                "abc": [
                    0.7516848,
                    0.87654466,
                    0.28591714
                ],
                "xyz": [
                    5.584546220234952,
                    0.5224768607983292,
                    1.421973277716299
                ],
                "label": "O",
                "properties": {}
            },
            {
                "species": [
                    {
                        "element": "O",
                        "occu": 1
                    }
                ],
                "abc": [
                    0.2483152,
                    0.12345534,
                    0.71408286
                ],
                "xyz": [
                    -0.8978469402349512,
                    -0.5224768607983293,
                    3.5544518022837006
                ],
                "label": "O",
                "properties": {}
            },
            {
                "species": [
                    {
                        "element": "O",
                        "occu": 1
                    }
                ],
                "abc": [
                    0.87654466,
                    0.7516848,
                    0.78591714
                ],
                "xyz": [
                    3.9099500702349514,
                    -0.5224768607983292,
                    3.911011217716299
                ],
                "label": "O",
                "properties": {}
            }
        ]
    },
    "spacegroup": {
        "source": "spglib",
        "symbol": "C2/c",
        "number": 15,
        "point_group": "2/m",
        "crystal_system": "monoclinic",
        "hall": "-C 2yc"
    },
    "dielectric": {
        "epsilon_ionic": [
            [
                5.9272115,
                -6e-08,
                -4.82542667
            ],
            [
                -6e-08,
                2.94494497,
                3e-08
            ],
            [
                -4.82542667,
                3e-08,
                12.65218377
            ]
        ],
        "epsilon_ionic_avg": 7.174780080000004,
        "epsilon_ionic_eig": [
            15.171113753216314,
            3.408281516783701,
            2.944944969999997
        ],
        "epsilon_electronic": [
            [
                4.04189585,
                0.0,
                -0.64531146
            ],
            [
                0.0,
                3.67664448,
                0.0
            ],
            [
                -0.64529861,
                0.0,
                4.64070865
            ]
        ],
        "epsilon_electronic_avg": 4.11974966,
        "epsilon_electronic_eig": [
            3.629921353070633,
            5.0526831469293665,
            3.67664448
        ]
    },
    "phonon": {
        "lowest_freq": -0.0507920092391638,
        "frequency": [
            -0.0507920092391638,
            -0.02430238159183321,
            -0.019323333283017975,
            1.7569288974824149,
            2.3746775680656325,
            2.4096095279159426,
            2.5657044370936233,
            2.622784684395286,
            3.049957677471547,
            3.0808718014296974,
            3.5814933021819604,
            4.304986386836339,
            4.375768887262768,
            4.637561490106152,
            5.958838083205672,
            7.216594909691154,
            8.011072142088825,
            9.861245943078027,
            10.695754678430317,
            11.472222777870869,
            13.388252020266876,
            14.182252026423344,
            15.374565347774945,
            16.05300498518868
        ]
    },
    "born_effective_charge": {
        "avg_abs_trace": 2.120549583333333,
        "tensors": [
            [
                [
                    1.3029,
                    -3e-05,
                    0.19222
                ],
                [
                    -0.0,
                    1.2673,
                    0.0
                ],
                [
                    0.18334,
                    -0.00013,
                    1.30104
                ]
            ],
            [
                [
                    1.3029,
                    3e-05,
                    0.19222
                ],
                [
                    -0.0,
                    1.26704,
                    0.0
                ],
                [
                    0.18334,
                    0.00013,
                    1.30104
                ]
            ],
            [
                [
                    2.85844,
                    0.00028,
                    -1.36943
                ],
                [
                    -0.0,
                    1.84369,
                    0.0
                ],
                [
                    -1.43295,
                    5e-05,
                    4.15005
                ]
            ],
            [
                [
                    2.85844,
                    -0.00028,
                    -1.36943
                ],
                [
                    -0.0,
                    1.84372,
                    0.0
                ],
                [
                    -1.43295,
                    -5e-05,
                    4.15005
                ]
            ],
            [
                [
                    -2.08054,
                    -0.98006,
                    0.5885
                ],
                [
                    -0.47536,
                    -1.55551,
                    0.10843
                ],
                [
                    0.6246,
                    0.74669,
                    -2.72541
                ]
            ],
            [
                [
                    -2.0808,
                    0.9812,
                    0.58871
                ],
                [
                    0.47536,
                    -1.55551,
                    -0.10843
                ],
                [
                    0.62501,
                    -0.74779,
                    -2.72567
                ]
            ],
            [
                [
                    -2.08054,
                    0.98006,
                    0.5885
                ],
                [
                    0.47511,
                    -1.55536,
                    -0.10868
                ],
                [
                    0.6246,
                    -0.74669,
                    -2.72541
                ]
            ],
            [
                [
                    -2.0808,
                    -0.9812,
                    0.58871
                ],
                [
                    -0.47511,
                    -1.55536,
                    0.10868
                ],
                [
                    0.62501,
                    0.74779,
                    -2.72567
                ]
            ]
        ]
    },
    "band_gap": 1.9535999999999998,
    "is_direct": true,
    "formula": "RbBiO2"
}