{
    "mp_id": "mp-29048",
    "nelements": 3,
    "nsites": 14,
    "elements": [
        "Bi",
        "O",
        "Sr"
    ],
    "structure": {
        "@module": "pymatgen.core.structure",
        "@class": "Structure",
        "charge": null,
        "lattice": {
            "matrix": [
                [
                    9.61021405,
                    -2.16441552,
                    0.00754691
                ],
                [
                    9.61021405,
                    2.16441552,
                    0.00754691
                ],
                [
                    -0.44020111,
                    0.0,
                    6.04347703
                ]
            ],
            "a": 9.850937294790015,
            "b": 9.850937294790015,
            "c": 6.059487736548598,
            "alpha": 94.02014831165069,
            "beta": 94.02014831165069,
            "gamma": 25.384788968078595,
            "volume": 251.42902596096673
        },
        "sites": [
            {
                "species": [
                    {
                        "element": "Sr",
                        "occu": 1
                    }
                ],
                "abc": [
                    0.76460959,
                    0.76460959,
                    0.74056762
                ],
                "xyz": [
                    14.370124960811419,
                    0.0,
                    4.487144280153502
                ],
                "label": "Sr",
                "properties": {}
            },
            {
                "species": [
                    {
                        "element": "Sr",
                        "occu": 1
                    }
                ],
                "abc": [
                    0.23539041,
                    0.23539041,
                    0.25943238
                ],
                "xyz": [
                    4.410102029188579,
                    0.0,
                    1.5714265698464978
                ],
                "label": "Sr",
                "properties": {}
            },
            {
                "species": [
                    {
                        "element": "Bi",
                        "occu": 1
                    }
                ],
                "abc": [
                    0.57460343,
                    0.57460343,
                    0.27654852
                ],
                "xyz": [
                    10.922386946855525,
                    0.0,
                    1.6799875890442983
                ],
                "label": "Bi",
                "properties": {}
            },
            {
                "species": [
                    {
                        "element": "Bi",
                        "occu": 1
                    }
                ],
                "abc": [
                    0.42539657,
                    0.42539657,
                    0.72345148
                ],
                "xyz": [
                    7.857840043144474,
                    0.0,
                    4.378583260955701
                ],
                "label": "Bi",
                "properties": {}
            },
            {
                "species": [
                    {
                        "element": "Bi",
                        "occu": 1
                    }
                ],
                "abc": [
                    0.90105697,
                    0.90105697,
                    0.18511634
                ],
                "xyz": [
                    17.237212287541716,
                    0.0,
                    1.1323467403825955
                ],
                "label": "Bi",
                "properties": {}
            },
            {
                "species": [
                    {
                        "element": "Bi",
                        "occu": 1
                    }
                ],
                "abc": [
                    0.09894303,
                    0.09894303,
                    0.81488366
                ],
                "xyz": [
                    1.5430147024582803,
                    0.0,
                    4.926224109617404
                ],
                "label": "Bi",
                "properties": {}
            },
            {
                "species": [
                    {
                        "element": "O",
                        "occu": 1
                    }
                ],
                "abc": [
                    0.90991373,
                    0.90991373,
                    0.82694012
                ],
                "xyz": [
                    17.12491146594028,
                    0.0,
                    5.011327694461592
                ],
                "label": "O",
                "properties": {}
            },
            {
                "species": [
                    {
                        "element": "O",
                        "occu": 1
                    }
                ],
                "abc": [
                    0.09008627,
                    0.09008627,
                    0.17305988
                ],
                "xyz": [
                    1.6553155240597202,
                    0.0,
                    1.0472431555384079
                ],
                "label": "O",
                "properties": {}
            },
            {
                "species": [
                    {
                        "element": "O",
                        "occu": 1
                    }
                ],
                "abc": [
                    0.79499247,
                    0.79499247,
                    0.14483797
                ],
                "xyz": [
                    15.21633777451226,
                    0.0,
                    0.8873244180103647
                ],
                "label": "O",
                "properties": {}
            },
            {
                "species": [
                    {
                        "element": "O",
                        "occu": 1
                    }
                ],
                "abc": [
                    0.20500753,
                    0.20500753,
                    0.85516203
                ],
                "xyz": [
                    3.5638892154877393,
                    0.0,
                    5.171246431989635
                ],
                "label": "O",
                "properties": {}
            },
            {
                "species": [
                    {
                        "element": "O",
                        "occu": 1
                    }
                ],
                "abc": [
                    0.67529844,
                    0.67529844,
                    0.42018296
                ],
                "xyz": [
                    12.79456010666708,
                    0.0,
                    2.5495589002570496
                ],
                "label": "O",
                "properties": {}
            },
            {
                "species": [
                    {
                        "element": "O",
                        "occu": 1
                    }
                ],
                "abc": [
                    0.32470156,
                    0.32470156,
                    0.57981704
                ],
                "xyz": [
                    5.985666883332922,
                    0.0,
                    3.5090119497429506
                ],
                "label": "O",
                "properties": {}
            },
            {
                "species": [
                    {
                        "element": "O",
                        "occu": 1
                    }
                ],
                "abc": [
                    0.41201767,
                    0.41201767,
                    0.07552319
                ],
                "xyz": [
                    7.885910610095785,
                    0.0,
                    0.4626415845451251
                ],
                "label": "O",
                "properties": {}
            },
            {
                "species": [
                    {
                        "element": "O",
                        "occu": 1
                    }
                ],
                "abc": [
                    0.58798233,
                    0.58798233,
                    0.92447681
                ],
                "xyz": [
                    10.894316379904213,
                    0.0,
                    5.595929265454875
                ],
                "label": "O",
                "properties": {}
            }
        ]
    },
    "spacegroup": {
        "source": "spglib",
        "symbol": "C2/m",
        "number": 12,
        "point_group": "2/m",
        "crystal_system": "monoclinic",
        "hall": "-C 2y"
    },
    "dielectric": {
        "epsilon_ionic": [
            [
                7.20364324,
                1.9e-07,
                0.83047296
            ],
            [
                1.9e-07,
                16.75150552,
                -3.4e-07
            ],
            [
                0.83047296,
                -3.4e-07,
                5.78832887
            ]
        ],
        "epsilon_ionic_avg": 9.914492543333331,
        "epsilon_ionic_eig": [
            7.587069932973314,
            5.4049021770266705,
            16.75150552000001
        ],
        "epsilon_electronic": [
            [
                4.66473099,
                0.0,
                0.05975444
            ],
            [
                0.0,
                5.8442879,
                0.0
            ],
            [
                0.05974991,
                0.0,
                4.93219983
            ]
        ],
        "epsilon_electronic_avg": 5.147072906666668,
        "epsilon_electronic_eig": [
            4.651989413656446,
            4.9449414063435535,
            5.8442879
        ]
    },
    "phonon": {
        "lowest_freq": -0.08872401836079298,
        "frequency": [
            -0.08872401836079298,
            -0.024343913586634073,
            -0.006788960681424743,
            0.9808204800128116,
            1.289772850605278,
            1.755590684630429,
            1.7861781156245928,
            2.251017749881429,
            2.4772953241898756,
            2.5665143851685674,
            2.684088699928183,
            3.050639374931746,
            3.175003455321825,
            3.2482618214396353,
            3.784823744418772,
            3.9760901930332926,
            4.18259418882071,
            4.363489565917516,
            4.6099109613372535,
            5.488870721669981,
            5.788374331317578,
            6.355116476186002,
            6.35551899519166,
            6.645824008883747,
            7.16679242164745,
            7.512178248635015,
            8.164345865294237,
            8.538508506711526,
            9.087827714972589,
            9.15924476073099,
            9.440756766204714,
            10.141783778085895,
            13.543566293376406,
            13.721444430781663,
            14.4054925955346,
            14.517148312384258,
            15.735517922312022,
            15.743452878886554,
            17.3261099470633,
            17.503218621693634,
            18.149121318174036,
            19.66099364531412
        ]
    },
    "born_effective_charge": {
        "avg_abs_trace": 2.727372380952381,
        "tensors": [
            [
                [
                    2.9325,
                    0.0,
                    0.29746
                ],
                [
                    -2e-05,
                    2.50856,
                    -4e-05
                ],
                [
                    0.15482,
                    0.0,
                    2.47182
                ]
            ],
            [
                [
                    2.93327,
                    0.0,
                    0.29671
                ],
                [
                    2e-05,
                    2.50856,
                    4e-05
                ],
                [
                    0.15478,
                    0.0,
                    2.47199
                ]
            ],
            [
                [
                    2.52461,
                    0.0,
                    0.59076
                ],
                [
                    0.0005,
                    4.6812,
                    -0.00037
                ],
                [
                    0.70873,
                    0.0,
                    3.29007
                ]
            ],
            [
                [
                    2.52423,
                    0.0,
                    0.59019
                ],
                [
                    -0.0005,
                    4.6812,
                    0.00037
                ],
                [
                    0.7104,
                    0.0,
                    3.28975
                ]
            ],
            [
                [
                    2.714,
                    0.0,
                    -0.35222
                ],
                [
                    -0.00011,
                    4.76664,
                    -0.00069
                ],
                [
                    -0.47575,
                    0.0,
                    2.74817
                ]
            ],
            [
                [
                    2.71427,
                    0.0,
                    -0.35209
                ],
                [
                    0.00011,
                    4.76664,
                    0.00069
                ],
                [
                    -0.47669,
                    0.0,
                    2.74732
                ]
            ],
            [
                [
                    -1.2875,
                    0.0,
                    0.40562
                ],
                [
                    0.00039,
                    -4.28448,
                    -0.00053
                ],
                [
                    0.14485,
                    0.0,
                    -2.28229
                ]
            ],
            [
                [
                    -1.28756,
                    0.0,
                    0.40589
                ],
                [
                    -0.00039,
                    -4.28448,
                    0.00053
                ],
                [
                    0.1452,
                    0.0,
                    -2.28448
                ]
            ],
            [
                [
                    -2.88387,
                    0.0,
                    -0.42947
                ],
                [
                    -0.00017,
                    -1.57609,
                    0.00016
                ],
                [
                    0.1909,
                    0.0,
                    -1.59024
                ]
            ],
            [
                [
                    -2.88321,
                    0.0,
                    -0.42929
                ],
                [
                    0.00017,
                    -1.57609,
                    -0.00016
                ],
                [
                    0.19166,
                    0.0,
                    -1.59018
                ]
            ],
            [
                [
                    -2.83883,
                    0.0,
                    -0.51893
                ],
                [
                    0.00012,
                    -1.77977,
                    -4e-05
                ],
                [
                    -0.94029,
                    0.0,
                    -2.09083
                ]
            ],
            [
                [
                    -2.83894,
                    0.0,
                    -0.51859
                ],
                [
                    -0.00012,
                    -1.77977,
                    4e-05
                ],
                [
                    -0.93967,
                    0.0,
                    -2.09122
                ]
            ],
            [
                [
                    -1.16168,
                    0.0,
                    0.00686
                ],
                [
                    -0.00011,
                    -4.31607,
                    0.00054
                ],
                [
                    0.21535,
                    0.0,
                    -2.54599
                ]
            ],
            [
                [
                    -1.1613,
                    0.0,
                    0.0071
                ],
                [
                    0.00011,
                    -4.31607,
                    -0.00054
                ],
                [
                    0.21572,
                    -0.0,
                    -2.5439
                ]
            ]
        ]
    },
    "band_gap": 2.587,
    "is_direct": false,
    "formula": "Sr(BiO2)2"
}