{
    "mp_id": "mp-28364",
    "nelements": 3,
    "nsites": 20,
    "elements": [
        "Cd",
        "O",
        "Rb"
    ],
    "structure": {
        "@module": "pymatgen.core.structure",
        "@class": "Structure",
        "charge": null,
        "lattice": {
            "matrix": [
                [
                    10.48801873,
                    0.0,
                    0.0
                ],
                [
                    0.0,
                    6.34807285,
                    0.0
                ],
                [
                    0.0,
                    0.0,
                    6.28120631
                ]
            ],
            "a": 10.48801873,
            "b": 6.34807285,
            "c": 6.28120631,
            "alpha": 90.0,
            "beta": 90.0,
            "gamma": 90.0,
            "volume": 418.1945942072653
        },
        "sites": [
            {
                "species": [
                    {
                        "element": "Rb",
                        "occu": 1
                    }
                ],
                "abc": [
                    0.34431293,
                    0.10899369,
                    0.39709983
                ],
                "xyz": [
                    3.611160458821179,
                    0.6918998843103166,
                    2.4942659578959274
                ],
                "label": "Rb",
                "properties": {}
            },
            {
                "species": [
                    {
                        "element": "Rb",
                        "occu": 1
                    }
                ],
                "abc": [
                    0.84431293,
                    0.39100631,
                    0.60290017
                ],
                "xyz": [
                    8.855169823821178,
                    2.482136540689684,
                    3.7869403521040725
                ],
                "label": "Rb",
                "properties": {}
            },
            {
                "species": [
                    {
                        "element": "Rb",
                        "occu": 1
                    }
                ],
                "abc": [
                    0.34431293,
                    0.89100631,
                    0.89709983
                ],
                "xyz": [
                    3.611160458821179,
                    5.6561729656896835,
                    5.634869112895927
                ],
                "label": "Rb",
                "properties": {}
            },
            {
                "species": [
                    {
                        "element": "Rb",
                        "occu": 1
                    }
                ],
                "abc": [
                    0.84431293,
                    0.60899369,
                    0.10290017
                ],
                "xyz": [
                    8.855169823821178,
                    3.865936309310317,
                    0.6463371971040727
                ],
                "label": "Rb",
                "properties": {}
            },
            {
                "species": [
                    {
                        "element": "Rb",
                        "occu": 1
                    }
                ],
                "abc": [
                    0.65568707,
                    0.89100631,
                    0.60290017
                ],
                "xyz": [
                    6.876858271178822,
                    5.6561729656896835,
                    3.7869403521040725
                ],
                "label": "Rb",
                "properties": {}
            },
            {
                "species": [
                    {
                        "element": "Rb",
                        "occu": 1
                    }
                ],
                "abc": [
                    0.15568707,
                    0.60899369,
                    0.39709983
                ],
                "xyz": [
                    1.6328489061788212,
                    3.865936309310317,
                    2.4942659578959274
                ],
                "label": "Rb",
                "properties": {}
            },
            {
                "species": [
                    {
                        "element": "Rb",
                        "occu": 1
                    }
                ],
                "abc": [
                    0.15568707,
                    0.39100631,
                    0.89709983
                ],
                "xyz": [
                    1.6328489061788212,
                    2.482136540689684,
                    5.634869112895927
                ],
                "label": "Rb",
                "properties": {}
            },
            {
                "species": [
                    {
                        "element": "Rb",
                        "occu": 1
                    }
                ],
                "abc": [
                    0.65568707,
                    0.10899369,
                    0.10290017
                ],
                "xyz": [
                    6.876858271178822,
                    0.6918998843103166,
                    0.6463371971040727
                ],
                "label": "Rb",
                "properties": {}
            },
            {
                "species": [
                    {
                        "element": "Cd",
                        "occu": 1
                    }
                ],
                "abc": [
                    0.5,
                    0.46306176,
                    0.75
                ],
                "xyz": [
                    5.244009365,
                    2.939549786529216,
                    4.7109047324999995
                ],
                "label": "Cd",
                "properties": {}
            },
            {
                "species": [
                    {
                        "element": "Cd",
                        "occu": 1
                    }
                ],
                "abc": [
                    0.5,
                    0.53693824,
                    0.25
                ],
                "xyz": [
                    5.244009365,
                    3.4085230634707844,
                    1.5703015775
                ],
                "label": "Cd",
                "properties": {}
            },
            {
                "species": [
                    {
                        "element": "Cd",
                        "occu": 1
                    }
                ],
                "abc": [
                    0.0,
                    0.96306176,
                    0.75
                ],
                "xyz": [
                    0.0,
                    6.113586211529216,
                    4.7109047324999995
                ],
                "label": "Cd",
                "properties": {}
            },
            {
                "species": [
                    {
                        "element": "Cd",
                        "occu": 1
                    }
                ],
                "abc": [
                    0.0,
                    0.03693824,
                    0.25
                ],
                "xyz": [
                    0.0,
                    0.234486638470784,
                    1.5703015775
                ],
                "label": "Cd",
                "properties": {}
            },
            {
                "species": [
                    {
                        "element": "O",
                        "occu": 1
                    }
                ],
                "abc": [
                    0.09598319,
                    0.19099856,
                    0.51828087
                ],
                "xyz": [
                    1.0066734944851488,
                    1.2124727731250962,
                    3.2554290709962896
                ],
                "label": "O",
                "properties": {}
            },
            {
                "species": [
                    {
                        "element": "O",
                        "occu": 1
                    }
                ],
                "abc": [
                    0.09598319,
                    0.80900144,
                    0.01828087
                ],
                "xyz": [
                    1.0066734944851488,
                    5.135600076874904,
                    0.1148259159962897
                ],
                "label": "O",
                "properties": {}
            },
            {
                "species": [
                    {
                        "element": "O",
                        "occu": 1
                    }
                ],
                "abc": [
                    0.40401681,
                    0.69099856,
                    0.51828087
                ],
                "xyz": [
                    4.237335870514851,
                    4.386509198125096,
                    3.2554290709962896
                ],
                "label": "O",
                "properties": {}
            },
            {
                "species": [
                    {
                        "element": "O",
                        "occu": 1
                    }
                ],
                "abc": [
                    0.59598319,
                    0.30900144,
                    0.48171913
                ],
                "xyz": [
                    6.250682859485149,
                    1.9615636518749042,
                    3.0257772390037103
                ],
                "label": "O",
                "properties": {}
            },
            {
                "species": [
                    {
                        "element": "O",
                        "occu": 1
                    }
                ],
                "abc": [
                    0.90401681,
                    0.80900144,
                    0.48171913
                ],
                "xyz": [
                    9.481345235514851,
                    5.135600076874904,
                    3.0257772390037103
                ],
                "label": "O",
                "properties": {}
            },
            {
                "species": [
                    {
                        "element": "O",
                        "occu": 1
                    }
                ],
                "abc": [
                    0.90401681,
                    0.19099856,
                    0.98171913
                ],
                "xyz": [
                    9.481345235514851,
                    1.2124727731250962,
                    6.16638039400371
                ],
                "label": "O",
                "properties": {}
            },
            {
                "species": [
                    {
                        "element": "O",
                        "occu": 1
                    }
                ],
                "abc": [
                    0.40401681,
                    0.30900144,
                    0.01828087
                ],
                "xyz": [
                    4.237335870514851,
                    1.9615636518749042,
                    0.1148259159962897
                ],
                "label": "O",
                "properties": {}
            },
            {
                "species": [
                    {
                        "element": "O",
                        "occu": 1
                    }
                ],
                "abc": [
                    0.59598319,
                    0.69099856,
                    0.98171913
                ],
                "xyz": [
                    6.250682859485149,
                    4.386509198125096,
                    6.16638039400371
                ],
                "label": "O",
                "properties": {}
            }
        ]
    },
    "spacegroup": {
        "source": "spglib",
        "symbol": "Pbcn",
        "number": 60,
        "point_group": "mmm",
        "crystal_system": "orthorhombic",
        "hall": "-P 2n 2ab"
    },
    "dielectric": {
        "epsilon_ionic": [
            [
                6.84298404,
                2e-08,
                3e-08
            ],
            [
                2e-08,
                6.0880434,
                1.1e-07
            ],
            [
                3e-08,
                1.1e-07,
                7.20608966
            ]
        ],
        "epsilon_ionic_avg": 6.7123723666666635,
        "epsilon_ionic_eig": [
            6.842984039999999,
            7.206089660000006,
            6.088043399999988
        ],
        "epsilon_electronic": [
            [
                3.52981869,
                0.0,
                0.0
            ],
            [
                0.0,
                3.67185271,
                0.0
            ],
            [
                0.0,
                -0.0,
                4.21679015
            ]
        ],
        "epsilon_electronic_avg": 3.80615385,
        "epsilon_electronic_eig": [
            3.52981869,
            3.67185271,
            4.21679015
        ]
    },
    "phonon": {
        "lowest_freq": -0.04090683274072742,
        "frequency": [
            -0.04090683274072742,
            -0.039158519911581036,
            -0.023855201503043908,
            0.8727033962894768,
            1.2323579212248938,
            1.4890670571499764,
            1.5145816033478567,
            1.5748449546870855,
            1.6809525925239448,
            1.9330262283233848,
            2.1213452967957163,
            2.1886198965912365,
            2.1906339684342417,
            2.1992942144291643,
            2.221683348123195,
            2.323897004716832,
            2.4134339020039337,
            2.540885335320838,
            2.573881036932356,
            2.6216931485778767,
            2.75223414573195,
            2.8927760890799976,
            2.9613712670130306,
            2.992894635623339,
            3.0528851042144796,
            3.08199838167676,
            3.100782807297383,
            3.3500926952156296,
            3.379021830787305,
            3.5052839351461134,
            3.6057026769243326,
            3.6229056660599066,
            3.983741828719182,
            3.9887266546577607,
            4.6904411900461165,
            5.104478701918337,
            5.27716286703043,
            5.477680182669839,
            5.515248348759202,
            5.710016526995391,
            5.771885325034979,
            6.17397045851728,
            6.3678623973743065,
            7.406755928523434,
            8.191922671039793,
            8.810210597727563,
            9.092237158880707,
            9.217353866766764,
            9.376130748166768,
            9.44958739403695,
            9.77512491382601,
            9.900213272468356,
            10.837518417842835,
            11.890457126728824,
            12.06673423827257,
            12.144677818084661,
            12.306048879262486,
            12.475026415512922,
            12.540523468436195,
            12.673834191621772
        ]
    },
    "born_effective_charge": {
        "avg_abs_trace": 1.655769,
        "tensors": [
            [
                [
                    1.29481,
                    0.0665,
                    -0.0658
                ],
                [
                    0.14614,
                    1.23234,
                    -0.12875
                ],
                [
                    -0.00217,
                    -0.09365,
                    1.06283
                ]
            ],
            [
                [
                    1.29481,
                    -0.0665,
                    0.0658
                ],
                [
                    -0.14619,
                    1.2319,
                    -0.12891
                ],
                [
                    0.00205,
                    -0.09394,
                    1.0625
                ]
            ],
            [
                [
                    1.29481,
                    -0.0665,
                    -0.0658
                ],
                [
                    -0.14619,
                    1.2319,
                    0.12891
                ],
                [
                    -0.00217,
                    0.09365,
                    1.06283
                ]
            ],
            [
                [
                    1.29481,
                    0.0665,
                    0.0658
                ],
                [
                    0.14614,
                    1.23234,
                    0.12875
                ],
                [
                    0.00205,
                    0.09394,
                    1.0625
                ]
            ],
            [
                [
                    1.2948,
                    0.06643,
                    -0.06584
                ],
                [
                    0.14619,
                    1.2319,
                    -0.12891
                ],
                [
                    -0.00205,
                    -0.09394,
                    1.0625
                ]
            ],
            [
                [
                    1.2948,
                    -0.06643,
                    0.06584
                ],
                [
                    -0.14614,
                    1.23234,
                    -0.12875
                ],
                [
                    0.00217,
                    -0.09365,
                    1.06283
                ]
            ],
            [
                [
                    1.2948,
                    0.06643,
                    0.06584
                ],
                [
                    0.14619,
                    1.2319,
                    0.12891
                ],
                [
                    0.00217,
                    0.09365,
                    1.06283
                ]
            ],
            [
                [
                    1.2948,
                    -0.06643,
                    -0.06584
                ],
                [
                    -0.14614,
                    1.23234,
                    0.12875
                ],
                [
                    -0.00205,
                    0.09394,
                    1.0625
                ]
            ],
            [
                [
                    1.20502,
                    7e-05,
                    -0.14309
                ],
                [
                    -0.0,
                    1.48979,
                    0.0
                ],
                [
                    -0.0479,
                    1e-05,
                    2.54418
                ]
            ],
            [
                [
                    1.20502,
                    -7e-05,
                    -0.14309
                ],
                [
                    -0.0,
                    1.48998,
                    0.0
                ],
                [
                    -0.0479,
                    -1e-05,
                    2.54418
                ]
            ],
            [
                [
                    1.20502,
                    7e-05,
                    0.14309
                ],
                [
                    -0.0,
                    1.48979,
                    0.0
                ],
                [
                    0.0479,
                    1e-05,
                    2.54418
                ]
            ],
            [
                [
                    1.20502,
                    -7e-05,
                    0.14309
                ],
                [
                    -0.0,
                    1.48998,
                    0.0
                ],
                [
                    0.0479,
                    -1e-05,
                    2.54418
                ]
            ],
            [
                [
                    -1.89734,
                    -0.34314,
                    -0.03418
                ],
                [
                    -0.36873,
                    -1.97717,
                    -0.18147
                ],
                [
                    0.03877,
                    0.08315,
                    -2.33474
                ]
            ],
            [
                [
                    -1.89734,
                    0.34314,
                    -0.03418
                ],
                [
                    0.36916,
                    -1.97696,
                    0.18099
                ],
                [
                    0.03877,
                    -0.08315,
                    -2.33474
                ]
            ],
            [
                [
                    -1.89729,
                    0.34309,
                    0.03417
                ],
                [
                    0.36873,
                    -1.97717,
                    -0.18147
                ],
                [
                    -0.03877,
                    0.08315,
                    -2.33474
                ]
            ],
            [
                [
                    -1.89734,
                    0.34314,
                    0.03418
                ],
                [
                    0.36916,
                    -1.97696,
                    -0.18099
                ],
                [
                    -0.03841,
                    0.08252,
                    -2.33477
                ]
            ],
            [
                [
                    -1.89729,
                    -0.34309,
                    -0.03417
                ],
                [
                    -0.36916,
                    -1.97696,
                    -0.18099
                ],
                [
                    0.03841,
                    0.08252,
                    -2.33477
                ]
            ],
            [
                [
                    -1.89729,
                    0.34309,
                    -0.03417
                ],
                [
                    0.36873,
                    -1.97717,
                    0.18147
                ],
                [
                    0.03841,
                    -0.08252,
                    -2.33477
                ]
            ],
            [
                [
                    -1.89729,
                    -0.34309,
                    0.03417
                ],
                [
                    -0.36916,
                    -1.97696,
                    0.18099
                ],
                [
                    -0.03877,
                    -0.08315,
                    -2.33474
                ]
            ],
            [
                [
                    -1.89734,
                    -0.34314,
                    0.03418
                ],
                [
                    -0.36873,
                    -1.97717,
                    0.18147
                ],
                [
                    -0.03841,
                    -0.08252,
                    -2.33477
                ]
            ]
        ]
    },
    "band_gap": 1.3706,
    "is_direct": false,
    "formula": "Rb2CdO2"
}