{
    "mp_id": "mp-2136",
    "nelements": 2,
    "nsites": 20,
    "elements": [
        "O",
        "Sb"
    ],
    "structure": {
        "@module": "pymatgen.core.structure",
        "@class": "Structure",
        "charge": null,
        "lattice": {
            "matrix": [
                [
                    4.90394363,
                    0.0,
                    0.0
                ],
                [
                    0.0,
                    12.26205596,
                    0.0
                ],
                [
                    0.0,
                    0.0,
                    5.38253395
                ]
            ],
            "a": 4.90394363,
            "b": 12.26205596,
            "c": 5.38253395,
            "alpha": 90.0,
            "beta": 90.0,
            "gamma": 90.0,
            "volume": 323.6648525147901
        },
        "sites": [
            {
                "species": [
                    {
                        "element": "Sb",
                        "occu": 1
                    }
                ],
                "abc": [
                    0.96340694,
                    0.87274733,
                    0.1787431
                ],
                "xyz": [
                    4.7244933265107925,
                    10.701676599400587,
                    0.962090804078245
                ],
                "label": "Sb",
                "properties": {}
            },
            {
                "species": [
                    {
                        "element": "Sb",
                        "occu": 1
                    }
                ],
                "abc": [
                    0.46340694,
                    0.12725267,
                    0.3212569
                ],
                "xyz": [
                    2.272521511510792,
                    1.5603793605994134,
                    1.729176170921755
                ],
                "label": "Sb",
                "properties": {}
            },
            {
                "species": [
                    {
                        "element": "Sb",
                        "occu": 1
                    }
                ],
                "abc": [
                    0.53659306,
                    0.62725267,
                    0.1787431
                ],
                "xyz": [
                    2.6314221184892075,
                    7.691407340599413,
                    0.962090804078245
                ],
                "label": "Sb",
                "properties": {}
            },
            {
                "species": [
                    {
                        "element": "Sb",
                        "occu": 1
                    }
                ],
                "abc": [
                    0.03659306,
                    0.37274733,
                    0.3212569
                ],
                "xyz": [
                    0.17945030348920776,
                    4.570648619400586,
                    1.729176170921755
                ],
                "label": "Sb",
                "properties": {}
            },
            {
                "species": [
                    {
                        "element": "Sb",
                        "occu": 1
                    }
                ],
                "abc": [
                    0.03659306,
                    0.12725267,
                    0.8212569
                ],
                "xyz": [
                    0.17945030348920776,
                    1.5603793605994134,
                    4.420443145921754
                ],
                "label": "Sb",
                "properties": {}
            },
            {
                "species": [
                    {
                        "element": "Sb",
                        "occu": 1
                    }
                ],
                "abc": [
                    0.53659306,
                    0.87274733,
                    0.6787431
                ],
                "xyz": [
                    2.6314221184892075,
                    10.701676599400587,
                    3.653357779078245
                ],
                "label": "Sb",
                "properties": {}
            },
            {
                "species": [
                    {
                        "element": "Sb",
                        "occu": 1
                    }
                ],
                "abc": [
                    0.46340694,
                    0.37274733,
                    0.8212569
                ],
                "xyz": [
                    2.272521511510792,
                    4.570648619400586,
                    4.420443145921754
                ],
                "label": "Sb",
                "properties": {}
            },
            {
                "species": [
                    {
                        "element": "Sb",
                        "occu": 1
                    }
                ],
                "abc": [
                    0.96340694,
                    0.62725267,
                    0.6787431
                ],
                "xyz": [
                    4.7244933265107925,
                    7.691407340599413,
                    3.653357779078245
                ],
                "label": "Sb",
                "properties": {}
            },
            {
                "species": [
                    {
                        "element": "O",
                        "occu": 1
                    }
                ],
                "abc": [
                    0.75,
                    0.75,
                    0.00265825
                ],
                "xyz": [
                    3.6779577224999995,
                    9.19654197,
                    0.0143081208725875
                ],
                "label": "O",
                "properties": {}
            },
            {
                "species": [
                    {
                        "element": "O",
                        "occu": 1
                    }
                ],
                "abc": [
                    0.25,
                    0.25,
                    0.49734175
                ],
                "xyz": [
                    1.2259859075,
                    3.06551399,
                    2.6769588541274127
                ],
                "label": "O",
                "properties": {}
            },
            {
                "species": [
                    {
                        "element": "O",
                        "occu": 1
                    }
                ],
                "abc": [
                    0.25,
                    0.25,
                    0.99734175
                ],
                "xyz": [
                    1.2259859075,
                    3.06551399,
                    5.368225829127413
                ],
                "label": "O",
                "properties": {}
            },
            {
                "species": [
                    {
                        "element": "O",
                        "occu": 1
                    }
                ],
                "abc": [
                    0.75,
                    0.75,
                    0.50265825
                ],
                "xyz": [
                    3.6779577224999995,
                    9.19654197,
                    2.7055750958725873
                ],
                "label": "O",
                "properties": {}
            },
            {
                "species": [
                    {
                        "element": "O",
                        "occu": 1
                    }
                ],
                "abc": [
                    0.85584276,
                    0.94376351,
                    0.84809905
                ],
                "xyz": [
                    4.197004651183619,
                    11.57248097262602,
                    4.564921929587747
                ],
                "label": "O",
                "properties": {}
            },
            {
                "species": [
                    {
                        "element": "O",
                        "occu": 1
                    }
                ],
                "abc": [
                    0.35584276,
                    0.05623649,
                    0.65190095
                ],
                "xyz": [
                    1.7450328361836185,
                    0.6895749873739804,
                    3.508878995412253
                ],
                "label": "O",
                "properties": {}
            },
            {
                "species": [
                    {
                        "element": "O",
                        "occu": 1
                    }
                ],
                "abc": [
                    0.64415724,
                    0.55623649,
                    0.84809905
                ],
                "xyz": [
                    3.1589107938163807,
                    6.82060296737398,
                    4.564921929587747
                ],
                "label": "O",
                "properties": {}
            },
            {
                "species": [
                    {
                        "element": "O",
                        "occu": 1
                    }
                ],
                "abc": [
                    0.14415724,
                    0.44376351,
                    0.65190095
                ],
                "xyz": [
                    0.7069389788163811,
                    5.44145299262602,
                    3.508878995412253
                ],
                "label": "O",
                "properties": {}
            },
            {
                "species": [
                    {
                        "element": "O",
                        "occu": 1
                    }
                ],
                "abc": [
                    0.14415724,
                    0.05623649,
                    0.15190095
                ],
                "xyz": [
                    0.7069389788163811,
                    0.6895749873739804,
                    0.8176120204122526
                ],
                "label": "O",
                "properties": {}
            },
            {
                "species": [
                    {
                        "element": "O",
                        "occu": 1
                    }
                ],
                "abc": [
                    0.64415724,
                    0.94376351,
                    0.34809905
                ],
                "xyz": [
                    3.1589107938163807,
                    11.57248097262602,
                    1.8736549545877477
                ],
                "label": "O",
                "properties": {}
            },
            {
                "species": [
                    {
                        "element": "O",
                        "occu": 1
                    }
                ],
                "abc": [
                    0.35584276,
                    0.44376351,
                    0.15190095
                ],
                "xyz": [
                    1.7450328361836185,
                    5.44145299262602,
                    0.8176120204122526
                ],
                "label": "O",
                "properties": {}
            },
            {
                "species": [
                    {
                        "element": "O",
                        "occu": 1
                    }
                ],
                "abc": [
                    0.85584276,
                    0.55623649,
                    0.34809905
                ],
                "xyz": [
                    4.197004651183619,
                    6.82060296737398,
                    1.8736549545877477
                ],
                "label": "O",
                "properties": {}
            }
        ]
    },
    "spacegroup": {
        "source": "spglib",
        "symbol": "Pccn",
        "number": 56,
        "point_group": "mmm",
        "crystal_system": "orthorhombic",
        "hall": "-P 2ab 2ac"
    },
    "dielectric": {
        "epsilon_ionic": [
            [
                17.9753549,
                -0.0,
                3.3e-07
            ],
            [
                -0.0,
                258.47452367,
                2e-08
            ],
            [
                3.3e-07,
                2e-08,
                8.80459363
            ]
        ],
        "epsilon_ionic_avg": 95.08482406666667,
        "epsilon_ionic_eig": [
            17.975354900000013,
            8.804593629999989,
            258.47452367
        ],
        "epsilon_electronic": [
            [
                5.08307051,
                0.0,
                0.0
            ],
            [
                0.0,
                6.15263998,
                0.0
            ],
            [
                0.0,
                0.0,
                5.90127838
            ]
        ],
        "epsilon_electronic_avg": 5.712329623333333,
        "epsilon_electronic_eig": [
            5.08307051,
            6.15263998,
            5.90127838
        ]
    },
    "phonon": {
        "lowest_freq": -0.054466366732187396,
        "frequency": [
            -0.054466366732187396,
            -0.03063975274014656,
            -0.02184096692026084,
            0.6743122084433648,
            1.3070673387690557,
            1.3780003396336027,
            1.4208712387466946,
            2.2671937766549077,
            2.6059244702740405,
            2.859632316132572,
            2.9766846719375333,
            3.052083359553377,
            3.3785957410836907,
            3.4072786514832347,
            3.5559960900306735,
            3.9416032213177292,
            4.055039409728217,
            4.1323220627170105,
            4.174695618348762,
            4.477629971924644,
            4.784028009299858,
            5.538654300461301,
            5.539672155758143,
            5.743359544057578,
            5.809641370626261,
            6.092731029478231,
            6.140469167840558,
            6.449432236259335,
            6.717950950176312,
            7.155047739696283,
            7.601565096250423,
            7.678277967073596,
            7.9253059104598504,
            8.042771181987078,
            8.307874274655576,
            8.439861548043725,
            9.049863392711826,
            9.702750757143855,
            11.172637044648152,
            12.386798487010807,
            13.220411235685242,
            14.327437324769111,
            14.378387766202048,
            14.48547589321815,
            14.913199566276646,
            14.915165780088792,
            15.33315187829149,
            15.391577181551211,
            15.842641462156594,
            16.603896752648804,
            17.2419963456142,
            17.381079923631063,
            17.57038885504987,
            17.605541661834526,
            17.734363697823337,
            18.59637102467049,
            19.166879967495365,
            19.336337554276742,
            19.52267362260109,
            19.67765442936537
        ]
    },
    "born_effective_charge": {
        "avg_abs_trace": 3.0819556666666665,
        "tensors": [
            [
                [
                    3.19274,
                    0.85785,
                    -0.09041
                ],
                [
                    1.01931,
                    4.56949,
                    -0.06112
                ],
                [
                    -0.45843,
                    0.01951,
                    3.79453
                ]
            ],
            [
                [
                    3.19274,
                    -0.85785,
                    0.09041
                ],
                [
                    -1.01896,
                    4.56955,
                    -0.06111
                ],
                [
                    0.45981,
                    0.01934,
                    3.7949
                ]
            ],
            [
                [
                    3.19345,
                    0.85828,
                    0.09003
                ],
                [
                    1.01896,
                    4.56955,
                    0.06111
                ],
                [
                    0.45843,
                    -0.01951,
                    3.79453
                ]
            ],
            [
                [
                    3.19345,
                    -0.85828,
                    -0.09003
                ],
                [
                    -1.01931,
                    4.56949,
                    0.06112
                ],
                [
                    -0.45981,
                    -0.01934,
                    3.7949
                ]
            ],
            [
                [
                    3.19345,
                    0.85828,
                    -0.09003
                ],
                [
                    1.01896,
                    4.56955,
                    -0.06111
                ],
                [
                    -0.45981,
                    0.01934,
                    3.7949
                ]
            ],
            [
                [
                    3.19345,
                    -0.85828,
                    0.09003
                ],
                [
                    -1.01931,
                    4.56949,
                    -0.06112
                ],
                [
                    0.45843,
                    0.01951,
                    3.79453
                ]
            ],
            [
                [
                    3.19274,
                    0.85785,
                    0.09041
                ],
                [
                    1.01931,
                    4.56949,
                    0.06112
                ],
                [
                    0.45981,
                    -0.01934,
                    3.7949
                ]
            ],
            [
                [
                    3.19274,
                    -0.85785,
                    -0.09041
                ],
                [
                    -1.01896,
                    4.56955,
                    0.06111
                ],
                [
                    -0.45843,
                    -0.01951,
                    3.79453
                ]
            ],
            [
                [
                    -2.01989,
                    -0.65117,
                    -0.00021
                ],
                [
                    -1.13212,
                    -3.67209,
                    -3e-05
                ],
                [
                    -0.0,
                    0.0,
                    -2.56464
                ]
            ],
            [
                [
                    -2.01989,
                    0.65117,
                    0.00021
                ],
                [
                    1.13212,
                    -3.67209,
                    3e-05
                ],
                [
                    -0.0,
                    0.0,
                    -2.56503
                ]
            ],
            [
                [
                    -2.01989,
                    -0.65117,
                    0.00021
                ],
                [
                    -1.13212,
                    -3.67209,
                    3e-05
                ],
                [
                    -0.0,
                    0.0,
                    -2.56503
                ]
            ],
            [
                [
                    -2.01989,
                    0.65117,
                    -0.00021
                ],
                [
                    1.13212,
                    -3.67209,
                    -3e-05
                ],
                [
                    -0.0,
                    0.0,
                    -2.56464
                ]
            ],
            [
                [
                    -2.18358,
                    -0.85249,
                    -0.64279
                ],
                [
                    -0.80317,
                    -2.7335,
                    0.28137
                ],
                [
                    -1.37391,
                    0.03139,
                    -2.51236
                ]
            ],
            [
                [
                    -2.18358,
                    0.85249,
                    0.64279
                ],
                [
                    0.80321,
                    -2.73345,
                    0.28143
                ],
                [
                    1.37257,
                    0.03207,
                    -2.51224
                ]
            ],
            [
                [
                    -2.18273,
                    -0.85321,
                    0.64242
                ],
                [
                    -0.80321,
                    -2.73345,
                    -0.28143
                ],
                [
                    1.37391,
                    -0.03139,
                    -2.51236
                ]
            ],
            [
                [
                    -2.18273,
                    0.85321,
                    -0.64242
                ],
                [
                    0.80317,
                    -2.7335,
                    -0.28137
                ],
                [
                    -1.37257,
                    -0.03207,
                    -2.51224
                ]
            ],
            [
                [
                    -2.18273,
                    -0.85321,
                    -0.64242
                ],
                [
                    -0.80321,
                    -2.73345,
                    0.28143
                ],
                [
                    -1.37257,
                    0.03207,
                    -2.51224
                ]
            ],
            [
                [
                    -2.18273,
                    0.85321,
                    0.64242
                ],
                [
                    0.80317,
                    -2.7335,
                    0.28137
                ],
                [
                    1.37391,
                    0.03139,
                    -2.51236
                ]
            ],
            [
                [
                    -2.18358,
                    -0.85249,
                    0.64279
                ],
                [
                    -0.80317,
                    -2.7335,
                    -0.28137
                ],
                [
                    1.37257,
                    -0.03207,
                    -2.51224
                ]
            ],
            [
                [
                    -2.18358,
                    0.85249,
                    -0.64279
                ],
                [
                    0.80321,
                    -2.73345,
                    -0.28143
                ],
                [
                    -1.37391,
                    -0.03139,
                    -2.51236
                ]
            ]
        ]
    },
    "band_gap": 1.8430000000000009,
    "is_direct": true,
    "formula": "Sb2O3"
}