{
    "mp_id": "mp-27966",
    "nelements": 3,
    "nsites": 22,
    "elements": [
        "Ag",
        "Mo",
        "O"
    ],
    "structure": {
        "@module": "pymatgen.core.structure",
        "@class": "Structure",
        "charge": null,
        "lattice": {
            "matrix": [
                [
                    6.08671585,
                    0.00135318,
                    -0.00234047
                ],
                [
                    -2.543953,
                    6.9185814,
                    0.00318671
                ],
                [
                    -0.62323719,
                    -3.24851957,
                    6.90176436
                ]
            ],
            "a": 6.086716450397304,
            "b": 7.371463600246262,
            "c": 7.653473412290546,
            "alpha": 111.70825596358016,
            "beta": 94.6962367852736,
            "gamma": 110.17567546053021,
            "volume": 290.7005619102151
        },
        "sites": [
            {
                "species": [
                    {
                        "element": "Ag",
                        "occu": 1
                    }
                ],
                "abc": [
                    0.76797189,
                    0.27018619,
                    0.94596843
                ],
                "xyz": [
                    3.397523000466475,
                    -1.2026526045841992,
                    6.527914785723301
                ],
                "label": "Ag",
                "properties": {}
            },
            {
                "species": [
                    {
                        "element": "Ag",
                        "occu": 1
                    }
                ],
                "abc": [
                    0.23202811,
                    0.72981381,
                    0.05403157
                ],
                "xyz": [
                    -0.47799734046647463,
                    4.874067614584199,
                    0.37469581427669857
                ],
                "label": "Ag",
                "properties": {}
            },
            {
                "species": [
                    {
                        "element": "Ag",
                        "occu": 1
                    }
                ],
                "abc": [
                    0.24760737,
                    0.26081283,
                    0.74164381
                ],
                "xyz": [
                    0.38140011811353053,
                    -0.6044545788940632,
                    5.118902432904838
                ],
                "label": "Ag",
                "properties": {}
            },
            {
                "species": [
                    {
                        "element": "Ag",
                        "occu": 1
                    }
                ],
                "abc": [
                    0.75239263,
                    0.73918717,
                    0.25835619
                ],
                "xyz": [
                    2.53812554188647,
                    4.275869588894063,
                    1.7837081670951629
                ],
                "label": "Ag",
                "properties": {}
            },
            {
                "species": [
                    {
                        "element": "Mo",
                        "occu": 1
                    }
                ],
                "abc": [
                    0.76763186,
                    0.26747474,
                    0.44730384
                ],
                "xyz": [
                    3.713137453661952,
                    0.39850922723800175,
                    3.086241446092474
                ],
                "label": "Mo",
                "properties": {}
            },
            {
                "species": [
                    {
                        "element": "Mo",
                        "occu": 1
                    }
                ],
                "abc": [
                    0.23236814,
                    0.73252526,
                    0.55269616
                ],
                "xyz": [
                    -0.7936117936619513,
                    3.272905782761998,
                    3.8163691539075257
                ],
                "label": "Mo",
                "properties": {}
            },
            {
                "species": [
                    {
                        "element": "Mo",
                        "occu": 1
                    }
                ],
                "abc": [
                    0.33136693,
                    0.32478776,
                    0.24840004
                ],
                "xyz": [
                    1.0358794056560732,
                    1.4405865632572183,
                    1.7146579931385868
                ],
                "label": "Mo",
                "properties": {}
            },
            {
                "species": [
                    {
                        "element": "Mo",
                        "occu": 1
                    }
                ],
                "abc": [
                    0.66863307,
                    0.67521224,
                    0.75159996
                ],
                "xyz": [
                    1.8836462543439272,
                    2.2308284467427817,
                    5.187952606861413
                ],
                "label": "Mo",
                "properties": {}
            },
            {
                "species": [
                    {
                        "element": "O",
                        "occu": 1
                    }
                ],
                "abc": [
                    0.75166023,
                    0.59551623,
                    0.93187015
                ],
                "xyz": [
                    2.4794008021675773,
                    1.093946224892318,
                    6.431686688724648
                ],
                "label": "O",
                "properties": {}
            },
            {
                "species": [
                    {
                        "element": "O",
                        "occu": 1
                    }
                ],
                "abc": [
                    0.24833977,
                    0.40448377,
                    0.06812985
                ],
                "xyz": [
                    0.4401248578324228,
                    2.5774687851076825,
                    0.47092391127535077
                ],
                "label": "O",
                "properties": {}
            },
            {
                "species": [
                    {
                        "element": "O",
                        "occu": 1
                    }
                ],
                "abc": [
                    0.91922372,
                    0.62135076,
                    0.60832555
                ],
                "xyz": [
                    3.6352353498784766,
                    2.32395223205928,
                    4.198348249407849
                ],
                "label": "O",
                "properties": {}
            },
            {
                "species": [
                    {
                        "element": "O",
                        "occu": 1
                    }
                ],
                "abc": [
                    0.08077628,
                    0.37864924,
                    0.39167445
                ],
                "xyz": [
                    -0.7157096898784776,
                    1.3474627779407196,
                    2.704262350592151
                ],
                "label": "O",
                "properties": {}
            },
            {
                "species": [
                    {
                        "element": "O",
                        "occu": 1
                    }
                ],
                "abc": [
                    0.35313377,
                    0.63961422,
                    0.77196853
                ],
                "xyz": [
                    0.04115690381196396,
                    1.9179460220932638,
                    5.329156653431935
                ],
                "label": "O",
                "properties": {}
            },
            {
                "species": [
                    {
                        "element": "O",
                        "occu": 1
                    }
                ],
                "abc": [
                    0.64686623,
                    0.36038578,
                    0.22803147
                ],
                "xyz": [
                    2.878368756188036,
                    1.7534689879067356,
                    1.573453946568065
                ],
                "label": "O",
                "properties": {}
            },
            {
                "species": [
                    {
                        "element": "O",
                        "occu": 1
                    }
                ],
                "abc": [
                    0.50236878,
                    0.66973743,
                    0.47694394
                ],
                "xyz": [
                    1.056746270557244,
                    3.084950998584617,
                    3.292713166717007
                ],
                "label": "O",
                "properties": {}
            },
            {
                "species": [
                    {
                        "element": "O",
                        "occu": 1
                    }
                ],
                "abc": [
                    0.49763122,
                    0.33026257,
                    0.52305606
                ],
                "xyz": [
                    1.8627793894427556,
                    0.5864640114153832,
                    3.609897433282993
                ],
                "label": "O",
                "properties": {}
            },
            {
                "species": [
                    {
                        "element": "O",
                        "occu": 1
                    }
                ],
                "abc": [
                    0.63894874,
                    0.00099364,
                    0.27162919
                ],
                "xyz": [
                    3.717282236539033,
                    -0.8746535476199592,
                    1.873228388762685
                ],
                "label": "O",
                "properties": {}
            },
            {
                "species": [
                    {
                        "element": "O",
                        "occu": 1
                    }
                ],
                "abc": [
                    0.36105126,
                    0.99900636,
                    0.72837081
                ],
                "xyz": [
                    -0.797756576539033,
                    4.546068557619959,
                    5.029382211237315
                ],
                "label": "O",
                "properties": {}
            },
            {
                "species": [
                    {
                        "element": "O",
                        "occu": 1
                    }
                ],
                "abc": [
                    0.18278609,
                    0.04937912,
                    0.14799168
                ],
                "xyz": [
                    0.8947149119145875,
                    -0.13887306501554342,
                    1.0211332541759577
                ],
                "label": "O",
                "properties": {}
            },
            {
                "species": [
                    {
                        "element": "O",
                        "occu": 1
                    }
                ],
                "abc": [
                    0.81721391,
                    0.95062088,
                    0.85200832
                ],
                "xyz": [
                    2.0248107480854127,
                    3.810288075015542,
                    5.881477345824042
                ],
                "label": "O",
                "properties": {}
            },
            {
                "species": [
                    {
                        "element": "O",
                        "occu": 1
                    }
                ],
                "abc": [
                    0.87300247,
                    0.24450899,
                    0.65693639
                ],
                "xyz": [
                    4.282271402888335,
                    -0.4412340393310117,
                    4.532756106441623
                ],
                "label": "O",
                "properties": {}
            },
            {
                "species": [
                    {
                        "element": "O",
                        "occu": 1
                    }
                ],
                "abc": [
                    0.12699753,
                    0.75549101,
                    0.34306361
                ],
                "xyz": [
                    -1.3627457428883354,
                    4.1126490493310115,
                    2.3698544935583774
                ],
                "label": "O",
                "properties": {}
            }
        ]
    },
    "spacegroup": {
        "source": "spglib",
        "symbol": "P-1",
        "number": 2,
        "point_group": "-1",
        "crystal_system": "triclinic",
        "hall": "-P 1"
    },
    "dielectric": {
        "epsilon_ionic": [
            [
                17.89879461,
                1.59704924,
                3.28073719
            ],
            [
                1.59704924,
                6.54648611,
                0.89113066
            ],
            [
                3.28073719,
                0.89113066,
                6.49891891
            ]
        ],
        "epsilon_ionic_avg": 10.314733210000002,
        "epsilon_ionic_eig": [
            19.027679354369766,
            6.515395579935134,
            5.401124695695107
        ],
        "epsilon_electronic": [
            [
                6.11920066,
                -0.23389981,
                -0.0565247
            ],
            [
                -0.23389975,
                5.33811605,
                -0.22665041
            ],
            [
                -0.05652529,
                -0.22665379,
                5.31605808
            ]
        ],
        "epsilon_electronic_avg": 5.591124930000002,
        "epsilon_electronic_eig": [
            6.18392978196292,
            5.060240557669599,
            5.529204450367487
        ]
    },
    "phonon": {
        "lowest_freq": -0.05212929509827426,
        "frequency": [
            -0.05212929509827426,
            -0.03839113783587029,
            -0.03237505561482226,
            1.3711944676379386,
            1.3976570220584943,
            1.4035886409715734,
            1.678805127938682,
            1.9614952320836312,
            1.9655415504719038,
            2.1219576415834847,
            2.263843084045082,
            2.4973920892670076,
            2.5447694851107165,
            2.9104976739821757,
            3.0797966011609796,
            3.403908946959571,
            3.462043258214445,
            4.012779412116918,
            4.301727931132507,
            4.413260869471827,
            4.459060220786344,
            4.750502817719329,
            4.839418191051868,
            5.447044631911979,
            5.881962202052522,
            5.934008369716917,
            6.030949689724823,
            6.330983144888172,
            6.392142028873361,
            6.6244783262030555,
            7.045022789259922,
            7.1703576396487945,
            7.574389769292533,
            7.695622381369576,
            8.625447327832054,
            9.099186124160083,
            9.196196147718013,
            9.258915450447248,
            9.826727642996355,
            9.9071475726274,
            10.05518849486984,
            10.23723034021428,
            10.489479824493667,
            10.635040949594632,
            10.917238374171152,
            11.310497093469264,
            11.759233964632537,
            11.972097154674477,
            12.390739638355914,
            13.124599269878388,
            13.391767975454623,
            14.010318330574709,
            16.320966180203648,
            17.576698655917028,
            19.16002371259151,
            19.622299351393547,
            21.050643901305445,
            21.347754552398726,
            23.565005496603103,
            23.939974517396692,
            24.2667482495785,
            24.9169936063339,
            25.594188267180762,
            25.816866730879426,
            26.97728633779948,
            27.276341415965675
        ]
    },
    "born_effective_charge": {
        "avg_abs_trace": 2.527145454545454,
        "tensors": [
            [
                [
                    1.27809,
                    -0.02041,
                    -0.09568
                ],
                [
                    -0.10075,
                    1.4908,
                    0.03141
                ],
                [
                    0.03942,
                    -0.03347,
                    1.53015
                ]
            ],
            [
                [
                    1.27821,
                    -0.0204,
                    -0.09581
                ],
                [
                    -0.10075,
                    1.49054,
                    0.03146
                ],
                [
                    0.03923,
                    -0.03312,
                    1.52984
                ]
            ],
            [
                [
                    1.20089,
                    0.11152,
                    -0.10052
                ],
                [
                    -0.03422,
                    1.49081,
                    -0.24044
                ],
                [
                    -0.09368,
                    0.03787,
                    1.26768
                ]
            ],
            [
                [
                    1.20095,
                    0.11154,
                    -0.10037
                ],
                [
                    -0.03425,
                    1.49062,
                    -0.24048
                ],
                [
                    -0.09376,
                    0.03775,
                    1.26753
                ]
            ],
            [
                [
                    7.22179,
                    0.02979,
                    0.71545
                ],
                [
                    -0.12499,
                    4.83679,
                    0.35713
                ],
                [
                    -0.05662,
                    -0.26202,
                    4.92242
                ]
            ],
            [
                [
                    7.22192,
                    0.02982,
                    0.71574
                ],
                [
                    -0.12452,
                    4.83635,
                    0.35724
                ],
                [
                    -0.05759,
                    -0.26104,
                    4.92177
                ]
            ],
            [
                [
                    7.26887,
                    -0.96693,
                    -0.21762
                ],
                [
                    0.07908,
                    4.82517,
                    -0.34052
                ],
                [
                    -0.15334,
                    -0.36653,
                    4.36483
                ]
            ],
            [
                [
                    7.26861,
                    -0.96702,
                    -0.21752
                ],
                [
                    0.0788,
                    4.82552,
                    -0.34106
                ],
                [
                    -0.15302,
                    -0.36664,
                    4.36566
                ]
            ],
            [
                [
                    -1.50073,
                    0.73741,
                    -0.55372
                ],
                [
                    0.49996,
                    -2.02922,
                    1.13404
                ],
                [
                    -0.55211,
                    1.21827,
                    -2.37067
                ]
            ],
            [
                [
                    -1.50099,
                    0.73768,
                    -0.55392
                ],
                [
                    0.49921,
                    -2.02864,
                    1.13337
                ],
                [
                    -0.55151,
                    1.2179,
                    -2.37004
                ]
            ],
            [
                [
                    -4.98161,
                    -1.29168,
                    1.34416
                ],
                [
                    -1.27077,
                    -1.90363,
                    -0.11068
                ],
                [
                    1.45611,
                    -0.13626,
                    -1.5935
                ]
            ],
            [
                [
                    -4.9815,
                    -1.29157,
                    1.3443
                ],
                [
                    -1.27055,
                    -1.90354,
                    -0.11079
                ],
                [
                    1.45573,
                    -0.13648,
                    -1.59318
                ]
            ],
            [
                [
                    -3.81397,
                    0.1365,
                    -0.56173
                ],
                [
                    -0.08103,
                    -1.29376,
                    0.37985
                ],
                [
                    -0.35685,
                    0.48292,
                    -1.55766
                ]
            ],
            [
                [
                    -3.81422,
                    0.1362,
                    -0.56138
                ],
                [
                    -0.08155,
                    -1.29384,
                    0.38
                ],
                [
                    -0.35747,
                    0.48291,
                    -1.55793
                ]
            ],
            [
                [
                    -3.66393,
                    0.95434,
                    0.30719
                ],
                [
                    0.81402,
                    -1.54496,
                    -0.1435
                ],
                [
                    0.24162,
                    -0.17998,
                    -1.91538
                ]
            ],
            [
                [
                    -3.66398,
                    0.95416,
                    0.30743
                ],
                [
                    0.81395,
                    -1.54473,
                    -0.14324
                ],
                [
                    0.24192,
                    -0.18036,
                    -1.9152
                ]
            ],
            [
                [
                    -0.75235,
                    0.02738,
                    -0.05113
                ],
                [
                    0.03853,
                    -2.07772,
                    -1.3248
                ],
                [
                    0.01719,
                    -1.08618,
                    -1.72504
                ]
            ],
            [
                [
                    -0.75234,
                    0.02747,
                    -0.05115
                ],
                [
                    0.03865,
                    -2.07732,
                    -1.3242
                ],
                [
                    0.01721,
                    -1.0861,
                    -1.72469
                ]
            ],
            [
                [
                    -0.78812,
                    0.00468,
                    0.04721
                ],
                [
                    -0.11518,
                    -2.49698,
                    -0.78364
                ],
                [
                    0.00561,
                    -0.51173,
                    -0.72732
                ]
            ],
            [
                [
                    -0.78812,
                    0.0054,
                    0.04728
                ],
                [
                    -0.11493,
                    -2.49678,
                    -0.78365
                ],
                [
                    0.00543,
                    -0.51157,
                    -0.72723
                ]
            ],
            [
                [
                    -1.46888,
                    0.27722,
                    -0.83414
                ],
                [
                    0.29586,
                    -1.29773,
                    1.04129
                ],
                [
                    -0.5471,
                    0.83765,
                    -2.19642
                ]
            ],
            [
                [
                    -1.46857,
                    0.2769,
                    -0.83408
                ],
                [
                    0.29544,
                    -1.29775,
                    1.0412
                ],
                [
                    -0.54641,
                    0.8362,
                    -2.19562
                ]
            ]
        ]
    },
    "band_gap": 2.1912,
    "is_direct": false,
    "formula": "Ag2Mo2O7"
}