{
    "mp_id": "mp-28381",
    "nelements": 3,
    "nsites": 28,
    "elements": [
        "Cs",
        "In",
        "O"
    ],
    "structure": {
        "@module": "pymatgen.core.structure",
        "@class": "Structure",
        "charge": null,
        "lattice": {
            "matrix": [
                [
                    8.10204288,
                    0.0,
                    -0.00037743
                ],
                [
                    0.0,
                    7.31979816,
                    0.0
                ],
                [
                    -1.06391107,
                    0.0,
                    11.72659987
                ]
            ],
            "a": 8.102042888791203,
            "b": 7.31979816,
            "c": 11.77476332144101,
            "alpha": 90.0,
            "beta": 95.18671078548483,
            "gamma": 90.0,
            "volume": 695.4468016984839
        },
        "sites": [
            {
                "species": [
                    {
                        "element": "Cs",
                        "occu": 1
                    }
                ],
                "abc": [
                    0.35044674,
                    0.16694754,
                    0.42796694
                ],
                "xyz": [
                    2.384015749576186,
                    1.2220222961085265,
                    5.01846479385522
                ],
                "label": "Cs",
                "properties": {}
            },
            {
                "species": [
                    {
                        "element": "Cs",
                        "occu": 1
                    }
                ],
                "abc": [
                    0.6249433,
                    0.18004617,
                    0.19282316
                ],
                "xyz": [
                    4.858170719692323,
                    1.3179016238810473,
                    2.26092417063927
                ],
                "label": "Cs",
                "properties": {}
            },
            {
                "species": [
                    {
                        "element": "Cs",
                        "occu": 1
                    }
                ],
                "abc": [
                    0.3750567,
                    0.68004617,
                    0.30717684
                ],
                "xyz": [
                    2.7119166253076776,
                    4.977800703881048,
                    3.60199833436073
                ],
                "label": "Cs",
                "properties": {}
            },
            {
                "species": [
                    {
                        "element": "Cs",
                        "occu": 1
                    }
                ],
                "abc": [
                    0.6249433,
                    0.31995383,
                    0.69282316
                ],
                "xyz": [
                    4.326215184692323,
                    2.341997456118953,
                    8.12422410563927
                ],
                "label": "Cs",
                "properties": {}
            },
            {
                "species": [
                    {
                        "element": "Cs",
                        "occu": 1
                    }
                ],
                "abc": [
                    0.04896808,
                    0.37489987,
                    0.15676901
                ],
                "xyz": [
                    0.2299531987393297,
                    2.7441913786102394,
                    1.838348970263594
                ],
                "label": "Cs",
                "properties": {}
            },
            {
                "species": [
                    {
                        "element": "Cs",
                        "occu": 1
                    }
                ],
                "abc": [
                    0.64955326,
                    0.83305246,
                    0.57203306
                ],
                "xyz": [
                    4.654116060423815,
                    6.097775863891474,
                    6.707757646144779
                ],
                "label": "Cs",
                "properties": {}
            },
            {
                "species": [
                    {
                        "element": "Cs",
                        "occu": 1
                    }
                ],
                "abc": [
                    0.04896808,
                    0.12510013,
                    0.65676901
                ],
                "xyz": [
                    -0.3020023362606703,
                    0.9157077013897609,
                    7.7016489052635935
                ],
                "label": "Cs",
                "properties": {}
            },
            {
                "species": [
                    {
                        "element": "Cs",
                        "occu": 1
                    }
                ],
                "abc": [
                    0.3750567,
                    0.81995383,
                    0.80717684
                ],
                "xyz": [
                    2.179961090307678,
                    6.001896536118953,
                    9.46529826936073
                ],
                "label": "Cs",
                "properties": {}
            },
            {
                "species": [
                    {
                        "element": "Cs",
                        "occu": 1
                    }
                ],
                "abc": [
                    0.35044674,
                    0.33305246,
                    0.92796694
                ],
                "xyz": [
                    1.8520602145761855,
                    2.4378767838914737,
                    10.88176472885522
                ],
                "label": "Cs",
                "properties": {}
            },
            {
                "species": [
                    {
                        "element": "Cs",
                        "occu": 1
                    }
                ],
                "abc": [
                    0.95103192,
                    0.62510013,
                    0.84323099
                ],
                "xyz": [
                    6.80817861126067,
                    4.5756067813897605,
                    9.887873469736405
                ],
                "label": "Cs",
                "properties": {}
            },
            {
                "species": [
                    {
                        "element": "Cs",
                        "occu": 1
                    }
                ],
                "abc": [
                    0.95103192,
                    0.87489987,
                    0.34323099
                ],
                "xyz": [
                    7.340134146260671,
                    6.40409045861024,
                    4.024573534736406
                ],
                "label": "Cs",
                "properties": {}
            },
            {
                "species": [
                    {
                        "element": "Cs",
                        "occu": 1
                    }
                ],
                "abc": [
                    0.64955326,
                    0.66694754,
                    0.07203306
                ],
                "xyz": [
                    5.186071595423815,
                    4.881921376108527,
                    0.8444577111447803
                ],
                "label": "Cs",
                "properties": {}
            },
            {
                "species": [
                    {
                        "element": "In",
                        "occu": 1
                    }
                ],
                "abc": [
                    0.15632836,
                    0.58659658,
                    0.56858709
                ],
                "xyz": [
                    0.6616529767699907,
                    4.2937685669462935,
                    6.6675342926647625
                ],
                "label": "In",
                "properties": {}
            },
            {
                "species": [
                    {
                        "element": "In",
                        "occu": 1
                    }
                ],
                "abc": [
                    0.15632836,
                    0.91340342,
                    0.06858709
                ],
                "xyz": [
                    1.1936085117699906,
                    6.6859286730537075,
                    0.8042343576647635
                ],
                "label": "In",
                "properties": {}
            },
            {
                "species": [
                    {
                        "element": "In",
                        "occu": 1
                    }
                ],
                "abc": [
                    0.84367164,
                    0.41340342,
                    0.43141291
                ],
                "xyz": [
                    6.37647883323001,
                    3.0260295930537073,
                    5.0586881473352365
                ],
                "label": "In",
                "properties": {}
            },
            {
                "species": [
                    {
                        "element": "In",
                        "occu": 1
                    }
                ],
                "abc": [
                    0.84367164,
                    0.08659658,
                    0.93141291
                ],
                "xyz": [
                    5.844523298230009,
                    0.6338694869462929,
                    10.921988082335236
                ],
                "label": "In",
                "properties": {}
            },
            {
                "species": [
                    {
                        "element": "O",
                        "occu": 1
                    }
                ],
                "abc": [
                    0.29253832,
                    0.05584018,
                    0.19803581
                ],
                "xyz": [
                    2.1594655221677455,
                    0.4087388468180688,
                    2.322176291063227
                ],
                "label": "O",
                "properties": {}
            },
            {
                "species": [
                    {
                        "element": "O",
                        "occu": 1
                    }
                ],
                "abc": [
                    0.24782502,
                    0.84786885,
                    0.54222504
                ],
                "xyz": [
                    1.431009716289665,
                    6.206228848151317,
                    6.358362546977446
                ],
                "label": "O",
                "properties": {}
            },
            {
                "species": [
                    {
                        "element": "O",
                        "occu": 1
                    }
                ],
                "abc": [
                    0.89550792,
                    0.55063653,
                    0.5933842
                ],
                "xyz": [
                    6.6241355480765165,
                    4.030548259122785,
                    6.958041091025808
                ],
                "label": "O",
                "properties": {}
            },
            {
                "species": [
                    {
                        "element": "O",
                        "occu": 1
                    }
                ],
                "abc": [
                    0.24782502,
                    0.65213115,
                    0.04222504
                ],
                "xyz": [
                    1.9629652512896651,
                    4.773468391848684,
                    0.49506261197744617
                ],
                "label": "O",
                "properties": {}
            },
            {
                "species": [
                    {
                        "element": "O",
                        "occu": 1
                    }
                ],
                "abc": [
                    0.29253832,
                    0.44415982,
                    0.69803581
                ],
                "xyz": [
                    1.6275099871677452,
                    3.251160233181931,
                    8.185476226063228
                ],
                "label": "O",
                "properties": {}
            },
            {
                "species": [
                    {
                        "element": "O",
                        "occu": 1
                    }
                ],
                "abc": [
                    0.10449208,
                    0.44936347,
                    0.4066158
                ],
                "xyz": [
                    0.41399626192348443,
                    3.2892499008772154,
                    4.768181348974192
                ],
                "label": "O",
                "properties": {}
            },
            {
                "species": [
                    {
                        "element": "O",
                        "occu": 1
                    }
                ],
                "abc": [
                    0.70746168,
                    0.94415982,
                    0.80196419
                ],
                "xyz": [
                    4.878666287832256,
                    6.911059313181932,
                    9.404046148936773
                ],
                "label": "O",
                "properties": {}
            },
            {
                "species": [
                    {
                        "element": "O",
                        "occu": 1
                    }
                ],
                "abc": [
                    0.70746168,
                    0.55584018,
                    0.30196419
                ],
                "xyz": [
                    5.410621822832256,
                    4.068637926818069,
                    3.5407462139367727
                ],
                "label": "O",
                "properties": {}
            },
            {
                "species": [
                    {
                        "element": "O",
                        "occu": 1
                    }
                ],
                "abc": [
                    0.75217498,
                    0.15213115,
                    0.45777496
                ],
                "xyz": [
                    5.607122093710336,
                    1.113569311848684,
                    5.367859893022553
                ],
                "label": "O",
                "properties": {}
            },
            {
                "species": [
                    {
                        "element": "O",
                        "occu": 1
                    }
                ],
                "abc": [
                    0.75217498,
                    0.34786885,
                    0.95777496
                ],
                "xyz": [
                    5.075166558710336,
                    2.5463297681513164,
                    11.231159828022554
                ],
                "label": "O",
                "properties": {}
            },
            {
                "species": [
                    {
                        "element": "O",
                        "occu": 1
                    }
                ],
                "abc": [
                    0.89550792,
                    0.94936347,
                    0.0933842
                ],
                "xyz": [
                    7.156091083076516,
                    6.949148980877215,
                    1.0947411560258082
                ],
                "label": "O",
                "properties": {}
            },
            {
                "species": [
                    {
                        "element": "O",
                        "occu": 1
                    }
                ],
                "abc": [
                    0.10449208,
                    0.05063653,
                    0.9066158
                ],
                "xyz": [
                    -0.11795927307651555,
                    0.37064917912278483,
                    10.63148128397419
                ],
                "label": "O",
                "properties": {}
            }
        ]
    },
    "spacegroup": {
        "source": "spglib",
        "symbol": "P2_1/c",
        "number": 14,
        "point_group": "2/m",
        "crystal_system": "monoclinic",
        "hall": "-P 2ybc"
    },
    "dielectric": {
        "epsilon_ionic": [
            [
                7.21228889,
                1e-08,
                0.16437886
            ],
            [
                1e-08,
                8.33860574,
                -0.0
            ],
            [
                0.16437886,
                -0.0,
                8.54504153
            ]
        ],
        "epsilon_ionic_avg": 8.031978719999996,
        "epsilon_ionic_eig": [
            7.192314126754957,
            8.565016293245035,
            8.338605739999998
        ],
        "epsilon_electronic": [
            [
                3.61840337,
                0.0,
                0.08378321
            ],
            [
                0.0,
                3.68607988,
                0.0
            ],
            [
                0.08378466,
                0.0,
                3.72324781
            ]
        ],
        "epsilon_electronic_avg": 3.675910353333333,
        "epsilon_electronic_eig": [
            3.5719932222590263,
            3.7696579577409737,
            3.68607988
        ]
    },
    "phonon": {
        "lowest_freq": -0.07698547053830798,
        "frequency": [
            -0.07698547053830798,
            -0.05516896189295821,
            -0.03584419894489417,
            0.9409577151699576,
            1.031711052188098,
            1.1472447550399718,
            1.2157452106786775,
            1.2450524885792609,
            1.2613075320592453,
            1.3161150435791595,
            1.3210229577033217,
            1.3345841047610403,
            1.4024736009928729,
            1.438394262626153,
            1.521649558137349,
            1.5270844275434219,
            1.534643926522252,
            1.7538387471985455,
            1.7647987807998096,
            1.8217389556597539,
            1.8575602324233345,
            1.894286003457565,
            1.9021009440534775,
            2.1129274956681714,
            2.1292289076886104,
            2.1528111082669477,
            2.240820658100705,
            2.2737902998057065,
            2.300086681889991,
            2.302376011478927,
            2.344963558971022,
            2.388264963096503,
            2.4545636234018207,
            2.4782689123271977,
            2.6214307521047306,
            2.679026034222454,
            2.7225251218436806,
            2.7248585457570385,
            2.788855981289331,
            2.8318739193887326,
            2.917838203914284,
            2.919527151400256,
            3.1381729978177173,
            3.1822437957668908,
            3.193876019156043,
            3.2273964101245243,
            3.7941213938049705,
            3.92634818529379,
            3.978869302430488,
            3.9880184936055274,
            4.45654653570541,
            4.528372966836936,
            4.592924120147682,
            4.722829026164753,
            4.871760075194104,
            4.891496365644384,
            5.400623882817567,
            5.4424467322627255,
            5.5670882499404835,
            5.593953747347617,
            5.6869143663833635,
            5.692241932558462,
            6.336237492191157,
            6.663461812578184,
            6.879708082479888,
            7.089437427072128,
            7.18603108461607,
            7.648322455516876,
            12.371579742280217,
            12.394965249206802,
            12.63494926593364,
            12.680597108453803,
            13.62181782644918,
            13.90559170504945,
            14.347177262401324,
            14.520263075839797,
            15.365525217081508,
            15.377049936034155,
            15.703236858993925,
            15.854572937730387,
            16.447412698033688,
            16.56687508349898,
            16.779167250103967,
            16.82957301246616
        ]
    },
    "born_effective_charge": {
        "avg_abs_trace": 1.8370461904761906,
        "tensors": [
            [
                [
                    1.31593,
                    -0.09144,
                    0.02142
                ],
                [
                    -0.0366,
                    1.35471,
                    -0.01681
                ],
                [
                    -0.04291,
                    0.00377,
                    1.38926
                ]
            ],
            [
                [
                    1.49624,
                    0.11695,
                    -0.11795
                ],
                [
                    0.14848,
                    1.17109,
                    0.07782
                ],
                [
                    -0.02782,
                    0.10523,
                    1.27191
                ]
            ],
            [
                [
                    1.49614,
                    -0.11699,
                    -0.11797
                ],
                [
                    -0.14848,
                    1.17109,
                    -0.07782
                ],
                [
                    -0.02781,
                    -0.10529,
                    1.27194
                ]
            ],
            [
                [
                    1.49624,
                    -0.11695,
                    -0.11795
                ],
                [
                    -0.14843,
                    1.17117,
                    -0.07766
                ],
                [
                    -0.02782,
                    -0.10523,
                    1.27191
                ]
            ],
            [
                [
                    1.09949,
                    0.00132,
                    0.02929
                ],
                [
                    0.05511,
                    1.357,
                    -0.02424
                ],
                [
                    0.01586,
                    0.02081,
                    1.36981
                ]
            ],
            [
                [
                    1.31599,
                    -0.09145,
                    0.02139
                ],
                [
                    -0.03647,
                    1.35473,
                    -0.01684
                ],
                [
                    -0.04284,
                    0.00369,
                    1.38922
                ]
            ],
            [
                [
                    1.09949,
                    -0.00132,
                    0.02929
                ],
                [
                    -0.05522,
                    1.35695,
                    0.02407
                ],
                [
                    0.01586,
                    -0.02081,
                    1.36981
                ]
            ],
            [
                [
                    1.49614,
                    0.11699,
                    -0.11797
                ],
                [
                    0.14843,
                    1.17117,
                    0.07766
                ],
                [
                    -0.02781,
                    0.10529,
                    1.27194
                ]
            ],
            [
                [
                    1.31593,
                    0.09144,
                    0.02142
                ],
                [
                    0.03647,
                    1.35473,
                    0.01684
                ],
                [
                    -0.04291,
                    -0.00377,
                    1.38926
                ]
            ],
            [
                [
                    1.09954,
                    0.00134,
                    0.02924
                ],
                [
                    0.05522,
                    1.35695,
                    -0.02407
                ],
                [
                    0.01573,
                    0.02082,
                    1.36978
                ]
            ],
            [
                [
                    1.09954,
                    -0.00134,
                    0.02924
                ],
                [
                    -0.05511,
                    1.357,
                    0.02424
                ],
                [
                    0.01573,
                    -0.02082,
                    1.36978
                ]
            ],
            [
                [
                    1.31599,
                    0.09145,
                    0.02139
                ],
                [
                    0.0366,
                    1.35471,
                    0.01681
                ],
                [
                    -0.04284,
                    -0.00369,
                    1.38922
                ]
            ],
            [
                [
                    2.35635,
                    0.41407,
                    0.53483
                ],
                [
                    0.39387,
                    2.62287,
                    -0.11488
                ],
                [
                    0.53153,
                    -0.19961,
                    2.48433
                ]
            ],
            [
                [
                    2.35635,
                    -0.41407,
                    0.53483
                ],
                [
                    -0.39398,
                    2.62286,
                    0.11475
                ],
                [
                    0.53153,
                    0.19961,
                    2.48433
                ]
            ],
            [
                [
                    2.35634,
                    0.41411,
                    0.53475
                ],
                [
                    0.39398,
                    2.62286,
                    -0.11475
                ],
                [
                    0.53146,
                    -0.1997,
                    2.48431
                ]
            ],
            [
                [
                    2.35634,
                    -0.41411,
                    0.53475
                ],
                [
                    -0.39387,
                    2.62287,
                    0.11488
                ],
                [
                    0.53146,
                    0.1997,
                    2.48431
                ]
            ],
            [
                [
                    -2.1077,
                    -0.16621,
                    -0.46207
                ],
                [
                    -0.18114,
                    -2.11052,
                    -0.19858
                ],
                [
                    -0.43541,
                    -0.24317,
                    -2.33097
                ]
            ],
            [
                [
                    -1.87939,
                    -0.28716,
                    0.03339
                ],
                [
                    -0.29176,
                    -2.52597,
                    0.13592
                ],
                [
                    -0.02688,
                    0.13743,
                    -1.98921
                ]
            ],
            [
                [
                    -2.28094,
                    -0.08511,
                    -0.03878
                ],
                [
                    0.00172,
                    -1.86927,
                    -0.28276
                ],
                [
                    -0.01425,
                    -0.22177,
                    -2.19502
                ]
            ],
            [
                [
                    -1.87939,
                    0.28716,
                    0.03339
                ],
                [
                    0.29193,
                    -2.52568,
                    -0.13584
                ],
                [
                    -0.02688,
                    -0.13743,
                    -1.98921
                ]
            ],
            [
                [
                    -2.1077,
                    0.16621,
                    -0.46207
                ],
                [
                    0.1812,
                    -2.1108,
                    0.19869
                ],
                [
                    -0.43541,
                    0.24317,
                    -2.33097
                ]
            ],
            [
                [
                    -2.28085,
                    -0.08515,
                    -0.03886
                ],
                [
                    0.00174,
                    -1.86915,
                    -0.28292
                ],
                [
                    -0.01425,
                    -0.22183,
                    -2.19508
                ]
            ],
            [
                [
                    -2.10773,
                    -0.16624,
                    -0.46207
                ],
                [
                    -0.1812,
                    -2.1108,
                    -0.19869
                ],
                [
                    -0.43552,
                    -0.24327,
                    -2.33114
                ]
            ],
            [
                [
                    -2.10773,
                    0.16624,
                    -0.46207
                ],
                [
                    0.18114,
                    -2.11052,
                    0.19858
                ],
                [
                    -0.43552,
                    0.24327,
                    -2.33114
                ]
            ],
            [
                [
                    -1.87941,
                    -0.28722,
                    0.03339
                ],
                [
                    -0.29193,
                    -2.52568,
                    0.13584
                ],
                [
                    -0.02689,
                    0.13742,
                    -1.98915
                ]
            ],
            [
                [
                    -1.87941,
                    0.28722,
                    0.03339
                ],
                [
                    0.29176,
                    -2.52597,
                    -0.13592
                ],
                [
                    -0.02689,
                    -0.13742,
                    -1.98915
                ]
            ],
            [
                [
                    -2.28094,
                    0.08511,
                    -0.03878
                ],
                [
                    -0.00174,
                    -1.86915,
                    0.28292
                ],
                [
                    -0.01425,
                    0.22177,
                    -2.19502
                ]
            ],
            [
                [
                    -2.28085,
                    0.08515,
                    -0.03886
                ],
                [
                    -0.00172,
                    -1.86927,
                    0.28276
                ],
                [
                    -0.01425,
                    0.22183,
                    -2.19508
                ]
            ]
        ]
    },
    "band_gap": 2.1631,
    "is_direct": false,
    "formula": "Cs3InO3"
}