{
    "mp_id": "mp-27564",
    "nelements": 3,
    "nsites": 22,
    "elements": [
        "B",
        "Na",
        "O"
    ],
    "structure": {
        "@module": "pymatgen.core.structure",
        "@class": "Structure",
        "charge": null,
        "lattice": {
            "matrix": [
                [
                    5.28226821,
                    -3.95099133,
                    -0.00067333
                ],
                [
                    5.28226821,
                    3.95099133,
                    -0.00067333
                ],
                [
                    -2.15803216,
                    0.0,
                    5.80015429
                ]
            ],
            "a": 6.5964149646216965,
            "b": 6.5964149646216965,
            "c": 6.188609907838728,
            "alpha": 106.22054609101774,
            "beta": 106.22054609101774,
            "gamma": 73.59095567258854,
            "volume": 242.0892304536942
        },
        "sites": [
            {
                "species": [
                    {
                        "element": "Na",
                        "occu": 1
                    }
                ],
                "abc": [
                    0.96759574,
                    0.31541672,
                    0.27363464
                ],
                "xyz": [
                    6.186703577281874,
                    -2.5767536536278968,
                    1.5862592403089137
                ],
                "label": "Na",
                "properties": {}
            },
            {
                "species": [
                    {
                        "element": "Na",
                        "occu": 1
                    }
                ],
                "abc": [
                    0.68458328,
                    0.03240426,
                    0.22636536
                ],
                "xyz": [
                    3.298816762718126,
                    -2.5767536536278968,
                    1.3124712446910862
                ],
                "label": "Na",
                "properties": {}
            },
            {
                "species": [
                    {
                        "element": "Na",
                        "occu": 1
                    }
                ],
                "abc": [
                    0.03240426,
                    0.68458328,
                    0.72636536
                ],
                "xyz": [
                    2.2198006827181263,
                    2.5767536536278968,
                    4.2125483896910865
                ],
                "label": "Na",
                "properties": {}
            },
            {
                "species": [
                    {
                        "element": "Na",
                        "occu": 1
                    }
                ],
                "abc": [
                    0.31541672,
                    0.96759574,
                    0.77363464
                ],
                "xyz": [
                    5.107687497281875,
                    2.5767536536278968,
                    4.486336385308914
                ],
                "label": "Na",
                "properties": {}
            },
            {
                "species": [
                    {
                        "element": "Na",
                        "occu": 1
                    }
                ],
                "abc": [
                    0.66994158,
                    0.59593863,
                    0.9246733
                ],
                "xyz": [
                    4.691244072057796,
                    -0.2923850138444237,
                    5.362395452721658
                ],
                "label": "Na",
                "properties": {}
            },
            {
                "species": [
                    {
                        "element": "Na",
                        "occu": 1
                    }
                ],
                "abc": [
                    0.40406137,
                    0.33005842,
                    0.5753267
                ],
                "xyz": [
                    2.6362441079422037,
                    -0.2923850138444233,
                    3.336489322278342
                ],
                "label": "Na",
                "properties": {}
            },
            {
                "species": [
                    {
                        "element": "Na",
                        "occu": 1
                    }
                ],
                "abc": [
                    0.33005842,
                    0.40406137,
                    0.0753267
                ],
                "xyz": [
                    3.7152601879422034,
                    0.2923850138444233,
                    0.4364121772783423
                ],
                "label": "Na",
                "properties": {}
            },
            {
                "species": [
                    {
                        "element": "Na",
                        "occu": 1
                    }
                ],
                "abc": [
                    0.59593863,
                    0.66994158,
                    0.4246733
                ],
                "xyz": [
                    5.770260152057796,
                    0.2923850138444237,
                    2.4623183077216577
                ],
                "label": "Na",
                "properties": {}
            },
            {
                "species": [
                    {
                        "element": "B",
                        "occu": 1
                    }
                ],
                "abc": [
                    0.0694098,
                    0.74748748,
                    0.33400675
                ],
                "xyz": [
                    3.594273224822389,
                    2.6790790347465143,
                    1.9367406424559153
                ],
                "label": "B",
                "properties": {}
            },
            {
                "species": [
                    {
                        "element": "B",
                        "occu": 1
                    }
                ],
                "abc": [
                    0.25251252,
                    0.9305902,
                    0.16599325
                ],
                "xyz": [
                    5.891247115177611,
                    2.6790790347465143,
                    0.961989842544085
                ],
                "label": "B",
                "properties": {}
            },
            {
                "species": [
                    {
                        "element": "B",
                        "occu": 1
                    }
                ],
                "abc": [
                    0.9305902,
                    0.25251252,
                    0.66599325
                ],
                "xyz": [
                    4.812231035177612,
                    -2.6790790347465143,
                    3.8620669875440847
                ],
                "label": "B",
                "properties": {}
            },
            {
                "species": [
                    {
                        "element": "B",
                        "occu": 1
                    }
                ],
                "abc": [
                    0.74748748,
                    0.0694098,
                    0.83400675
                ],
                "xyz": [
                    2.515257144822389,
                    -2.6790790347465143,
                    4.836817787455915
                ],
                "label": "B",
                "properties": {}
            },
            {
                "species": [
                    {
                        "element": "O",
                        "occu": 1
                    }
                ],
                "abc": [
                    0.93124431,
                    0.06875569,
                    0.75
                ],
                "xyz": [
                    3.66374409,
                    -3.407685059843664,
                    4.3494423875
                ],
                "label": "O",
                "properties": {}
            },
            {
                "species": [
                    {
                        "element": "O",
                        "occu": 1
                    }
                ],
                "abc": [
                    0.06875569,
                    0.93124431,
                    0.25
                ],
                "xyz": [
                    4.7427601699999995,
                    3.407685059843664,
                    1.4493652425
                ],
                "label": "O",
                "properties": {}
            },
            {
                "species": [
                    {
                        "element": "O",
                        "occu": 1
                    }
                ],
                "abc": [
                    0.65218227,
                    0.25918441,
                    0.96166333
                ],
                "xyz": [
                    2.73878284818455,
                    -1.552731137568554,
                    5.577182038508542
                ],
                "label": "O",
                "properties": {}
            },
            {
                "species": [
                    {
                        "element": "O",
                        "occu": 1
                    }
                ],
                "abc": [
                    0.74081559,
                    0.34781773,
                    0.53833667
                ],
                "xyz": [
                    4.58870533181545,
                    -1.5527311375685535,
                    3.1217027364914585
                ],
                "label": "O",
                "properties": {}
            },
            {
                "species": [
                    {
                        "element": "O",
                        "occu": 1
                    }
                ],
                "abc": [
                    0.87811597,
                    0.68539461,
                    0.28570997
                ],
                "xyz": [
                    7.642310929040026,
                    -0.7614404224658089,
                    1.6561091496124398
                ],
                "label": "O",
                "properties": {}
            },
            {
                "species": [
                    {
                        "element": "O",
                        "occu": 1
                    }
                ],
                "abc": [
                    0.31460539,
                    0.12188403,
                    0.21429003
                ],
                "xyz": [
                    1.8432094109599735,
                    -0.7614404224658087,
                    1.24262133538756
                ],
                "label": "O",
                "properties": {}
            },
            {
                "species": [
                    {
                        "element": "O",
                        "occu": 1
                    }
                ],
                "abc": [
                    0.12188403,
                    0.31460539,
                    0.71429003
                ],
                "xyz": [
                    0.7641933309599733,
                    0.7614404224658087,
                    4.14269848038756
                ],
                "label": "O",
                "properties": {}
            },
            {
                "species": [
                    {
                        "element": "O",
                        "occu": 1
                    }
                ],
                "abc": [
                    0.68539461,
                    0.87811597,
                    0.78570997
                ],
                "xyz": [
                    6.563294849040027,
                    0.7614404224658089,
                    4.55618629461244
                ],
                "label": "O",
                "properties": {}
            },
            {
                "species": [
                    {
                        "element": "O",
                        "occu": 1
                    }
                ],
                "abc": [
                    0.25918441,
                    0.65218227,
                    0.46166333
                ],
                "xyz": [
                    3.81779892818455,
                    1.552731137568554,
                    2.6771048935085413
                ],
                "label": "O",
                "properties": {}
            },
            {
                "species": [
                    {
                        "element": "O",
                        "occu": 1
                    }
                ],
                "abc": [
                    0.34781773,
                    0.74081559,
                    0.03833667
                ],
                "xyz": [
                    5.6677214118154495,
                    1.5527311375685535,
                    0.22162559149145872
                ],
                "label": "O",
                "properties": {}
            }
        ]
    },
    "spacegroup": {
        "source": "spglib",
        "symbol": "C2/c",
        "number": 15,
        "point_group": "2/m",
        "crystal_system": "monoclinic",
        "hall": "-C 2yc"
    },
    "dielectric": {
        "epsilon_ionic": [
            [
                3.9257949,
                -1e-08,
                0.81549875
            ],
            [
                -1e-08,
                2.82006417,
                0.0
            ],
            [
                0.81549875,
                0.0,
                5.2689873
            ]
        ],
        "epsilon_ionic_avg": 4.00494879,
        "epsilon_ionic_eig": [
            5.653837817589679,
            3.5409443824103217,
            2.8200641700000006
        ],
        "epsilon_electronic": [
            [
                2.50420367,
                0.0,
                -0.02737921
            ],
            [
                0.0,
                2.3850564,
                0.0
            ],
            [
                -0.02738318,
                0.0,
                2.32097131
            ]
        ],
        "epsilon_electronic_avg": 2.40341046,
        "epsilon_electronic_eig": [
            2.5082078553699367,
            2.316967124630063,
            2.3850564
        ]
    },
    "phonon": {
        "lowest_freq": -0.25338296635161767,
        "frequency": [
            -0.25338296635161767,
            -0.2188109137377052,
            -0.1854663547832399,
            3.105488725591565,
            3.600753667220374,
            3.9910831017468067,
            4.122355566102706,
            4.129625148310197,
            4.290522420586083,
            4.4685431864584375,
            4.61083188067225,
            5.013111234557144,
            5.197896290949755,
            5.271790001876675,
            5.512678806138933,
            5.598727775646716,
            5.754615450810887,
            5.774567736654332,
            6.03431148103933,
            6.056718153875651,
            6.124788334283698,
            6.324637337687619,
            6.4820919629706975,
            6.537125321002634,
            6.688091587390274,
            6.690373428511773,
            6.730873396553318,
            7.0744001414000195,
            7.104967979921778,
            7.108610722775294,
            7.316702120636629,
            7.3986565968312625,
            7.466180825132886,
            7.736411141654593,
            7.751525492739893,
            7.757450704014258,
            7.787965017043373,
            7.923550466590658,
            8.086010679217559,
            8.220100988684976,
            8.287285746621453,
            9.253660799954858,
            13.145698493185945,
            13.200988078317188,
            14.543931057355215,
            14.941287922870682,
            17.343504493325884,
            17.362761507128017,
            17.55449928210824,
            18.066351974593918,
            21.06811687786336,
            21.601724139499385,
            21.827258689126104,
            21.912852772271915,
            24.095916259351707,
            24.23388668850647,
            28.005075561250308,
            28.14963470875815,
            32.50140238793758,
            32.56727198786237,
            36.29305221422674,
            37.015230777955836,
            39.96536984239565,
            40.3294766641066,
            40.656161423571795,
            40.88633649463298
        ]
    },
    "born_effective_charge": {
        "avg_abs_trace": 1.379210909090909,
        "tensors": [
            [
                [
                    0.97653,
                    0.11826,
                    -0.00749
                ],
                [
                    0.09517,
                    0.93783,
                    0.05088
                ],
                [
                    0.00056,
                    0.01929,
                    1.07845
                ]
            ],
            [
                [
                    0.97657,
                    -0.11825,
                    -0.00749
                ],
                [
                    -0.09517,
                    0.93783,
                    -0.05088
                ],
                [
                    0.00054,
                    -0.0193,
                    1.07847
                ]
            ],
            [
                [
                    0.97657,
                    0.11825,
                    -0.00749
                ],
                [
                    0.09515,
                    0.93783,
                    0.05088
                ],
                [
                    0.00054,
                    0.0193,
                    1.07847
                ]
            ],
            [
                [
                    0.97653,
                    -0.11826,
                    -0.00749
                ],
                [
                    -0.09515,
                    0.93783,
                    -0.05088
                ],
                [
                    0.00056,
                    -0.01929,
                    1.07845
                ]
            ],
            [
                [
                    1.0359,
                    0.04329,
                    0.03672
                ],
                [
                    0.04467,
                    1.11784,
                    0.03853
                ],
                [
                    0.01713,
                    0.076,
                    0.99401
                ]
            ],
            [
                [
                    1.03588,
                    -0.04329,
                    0.03672
                ],
                [
                    -0.04467,
                    1.11784,
                    -0.03853
                ],
                [
                    0.01714,
                    -0.076,
                    0.99401
                ]
            ],
            [
                [
                    1.03588,
                    0.04329,
                    0.03672
                ],
                [
                    0.04465,
                    1.11783,
                    0.03852
                ],
                [
                    0.01714,
                    0.076,
                    0.99401
                ]
            ],
            [
                [
                    1.0359,
                    -0.04329,
                    0.03672
                ],
                [
                    -0.04465,
                    1.11783,
                    -0.03852
                ],
                [
                    0.01713,
                    -0.076,
                    0.99401
                ]
            ],
            [
                [
                    2.51077,
                    0.00524,
                    -0.10869
                ],
                [
                    -0.12011,
                    1.65622,
                    -0.73741
                ],
                [
                    -0.13347,
                    -0.86361,
                    1.07088
                ]
            ],
            [
                [
                    2.51077,
                    -0.00532,
                    -0.10877
                ],
                [
                    0.12011,
                    1.65622,
                    0.73741
                ],
                [
                    -0.1335,
                    0.86364,
                    1.07094
                ]
            ],
            [
                [
                    2.51077,
                    0.00532,
                    -0.10877
                ],
                [
                    -0.12016,
                    1.65625,
                    -0.73742
                ],
                [
                    -0.1335,
                    -0.86364,
                    1.07094
                ]
            ],
            [
                [
                    2.51077,
                    -0.00524,
                    -0.10869
                ],
                [
                    0.12016,
                    1.65625,
                    0.73742
                ],
                [
                    -0.13347,
                    0.86361,
                    1.07088
                ]
            ],
            [
                [
                    -2.27544,
                    5e-05,
                    0.53313
                ],
                [
                    0.0,
                    -1.29871,
                    0.0
                ],
                [
                    0.64463,
                    1e-05,
                    -1.05241
                ]
            ],
            [
                [
                    -2.27544,
                    -5e-05,
                    0.53313
                ],
                [
                    0.0,
                    -1.29857,
                    0.0
                ],
                [
                    0.64463,
                    -1e-05,
                    -1.05241
                ]
            ],
            [
                [
                    -1.34291,
                    -0.04273,
                    -0.03932
                ],
                [
                    -0.08979,
                    -1.76949,
                    -0.42419
                ],
                [
                    -0.02418,
                    -0.50466,
                    -1.40887
                ]
            ],
            [
                [
                    -1.34296,
                    0.04277,
                    -0.03953
                ],
                [
                    0.08979,
                    -1.76949,
                    0.42419
                ],
                [
                    -0.02425,
                    0.50469,
                    -1.40879
                ]
            ],
            [
                [
                    -2.04252,
                    0.30389,
                    -0.14767
                ],
                [
                    0.30942,
                    -1.29309,
                    0.11698
                ],
                [
                    -0.18231,
                    0.15997,
                    -1.20833
                ]
            ],
            [
                [
                    -2.04259,
                    -0.30389,
                    -0.1476
                ],
                [
                    -0.30942,
                    -1.29309,
                    -0.11698
                ],
                [
                    -0.18228,
                    -0.15997,
                    -1.20836
                ]
            ],
            [
                [
                    -2.04259,
                    0.30389,
                    -0.1476
                ],
                [
                    0.30944,
                    -1.29314,
                    0.117
                ],
                [
                    -0.18228,
                    0.15997,
                    -1.20836
                ]
            ],
            [
                [
                    -2.04252,
                    -0.30389,
                    -0.14767
                ],
                [
                    -0.30944,
                    -1.29314,
                    -0.117
                ],
                [
                    -0.18231,
                    -0.15997,
                    -1.20833
                ]
            ],
            [
                [
                    -1.34291,
                    0.04273,
                    -0.03932
                ],
                [
                    0.08973,
                    -1.76944,
                    0.42412
                ],
                [
                    -0.02418,
                    0.50466,
                    -1.40887
                ]
            ],
            [
                [
                    -1.34296,
                    -0.04277,
                    -0.03953
                ],
                [
                    -0.08973,
                    -1.76944,
                    -0.42412
                ],
                [
                    -0.02425,
                    -0.50469,
                    -1.40879
                ]
            ]
        ]
    },
    "band_gap": 3.9228000000000005,
    "is_direct": false,
    "formula": "Na4B2O5"
}