{
    "mp_id": "mp-22450",
    "nelements": 3,
    "nsites": 12,
    "elements": [
        "Li",
        "O",
        "Pb"
    ],
    "structure": {
        "@module": "pymatgen.core.structure",
        "@class": "Structure",
        "charge": null,
        "lattice": {
            "matrix": [
                [
                    2.70302641,
                    -4.661205,
                    -0.00129591
                ],
                [
                    2.70302641,
                    4.661205,
                    -0.00129591
                ],
                [
                    -1.90966376,
                    0.0,
                    5.137133
                ]
            ],
            "a": 5.388245122910169,
            "b": 5.388245122910169,
            "c": 5.480597698786724,
            "alpha": 100.07991569830125,
            "beta": 100.07991569830125,
            "gamma": 119.78122018239046,
            "volume": 129.4261076474541
        },
        "sites": [
            {
                "species": [
                    {
                        "element": "Li",
                        "occu": 1
                    }
                ],
                "abc": [
                    0.25644884,
                    0.74355116,
                    0.75
                ],
                "xyz": [
                    1.2707785900000002,
                    2.2704837694956,
                    3.8515538400000002
                ],
                "label": "Li",
                "properties": {}
            },
            {
                "species": [
                    {
                        "element": "Li",
                        "occu": 1
                    }
                ],
                "abc": [
                    0.74355116,
                    0.25644884,
                    0.25
                ],
                "xyz": [
                    2.2256104700000003,
                    -2.2704837694956,
                    1.28298734
                ],
                "label": "Li",
                "properties": {}
            },
            {
                "species": [
                    {
                        "element": "Li",
                        "occu": 1
                    }
                ],
                "abc": [
                    0.58280526,
                    0.41719474,
                    0.75
                ],
                "xyz": [
                    1.2707785900000002,
                    -0.7719445838765999,
                    3.8515538400000002
                ],
                "label": "Li",
                "properties": {}
            },
            {
                "species": [
                    {
                        "element": "Li",
                        "occu": 1
                    }
                ],
                "abc": [
                    0.41719474,
                    0.58280526,
                    0.25
                ],
                "xyz": [
                    2.2256104700000003,
                    0.7719445838765999,
                    1.28298734
                ],
                "label": "Li",
                "properties": {}
            },
            {
                "species": [
                    {
                        "element": "Pb",
                        "occu": 1
                    }
                ],
                "abc": [
                    0.08808245,
                    0.91191755,
                    0.25
                ],
                "xyz": [
                    2.2256104700000003,
                    3.8400642872955,
                    1.28298734
                ],
                "label": "Pb",
                "properties": {}
            },
            {
                "species": [
                    {
                        "element": "Pb",
                        "occu": 1
                    }
                ],
                "abc": [
                    0.91191755,
                    0.08808245,
                    0.75
                ],
                "xyz": [
                    1.2707785900000002,
                    -3.8400642872955,
                    3.8515538400000002
                ],
                "label": "Pb",
                "properties": {}
            },
            {
                "species": [
                    {
                        "element": "O",
                        "occu": 1
                    }
                ],
                "abc": [
                    0.0,
                    0.5,
                    0.0
                ],
                "xyz": [
                    1.351513205,
                    2.3306025,
                    -0.000647955
                ],
                "label": "O",
                "properties": {}
            },
            {
                "species": [
                    {
                        "element": "O",
                        "occu": 1
                    }
                ],
                "abc": [
                    0.5,
                    0.0,
                    0.5
                ],
                "xyz": [
                    0.3966813250000001,
                    -2.3306025,
                    2.5679185450000004
                ],
                "label": "O",
                "properties": {}
            },
            {
                "species": [
                    {
                        "element": "O",
                        "occu": 1
                    }
                ],
                "abc": [
                    0.67427963,
                    0.83489902,
                    0.99190421
                ],
                "xyz": [
                    2.185146225129717,
                    0.7486799037649501,
                    5.093588090325609
                ],
                "label": "O",
                "properties": {}
            },
            {
                "species": [
                    {
                        "element": "O",
                        "occu": 1
                    }
                ],
                "abc": [
                    0.16510098,
                    0.32572037,
                    0.50809579
                ],
                "xyz": [
                    0.35641095487028307,
                    0.7486799037649499,
                    2.609519589674392
                ],
                "label": "O",
                "properties": {}
            },
            {
                "species": [
                    {
                        "element": "O",
                        "occu": 1
                    }
                ],
                "abc": [
                    0.32572037,
                    0.16510098,
                    0.00809579
                ],
                "xyz": [
                    1.3112428348702831,
                    -0.7486799037649499,
                    0.0409530896743915
                ],
                "label": "O",
                "properties": {}
            },
            {
                "species": [
                    {
                        "element": "O",
                        "occu": 1
                    }
                ],
                "abc": [
                    0.83489902,
                    0.67427963,
                    0.49190421
                ],
                "xyz": [
                    3.139978105129717,
                    -0.7486799037649501,
                    2.525021590325609
                ],
                "label": "O",
                "properties": {}
            }
        ]
    },
    "spacegroup": {
        "source": "spglib",
        "symbol": "C2/c",
        "number": 15,
        "point_group": "2/m",
        "crystal_system": "monoclinic",
        "hall": "-C 2yc"
    },
    "dielectric": {
        "epsilon_ionic": [
            [
                20.58211615,
                1e-08,
                -5.01542344
            ],
            [
                1e-08,
                21.66286101,
                1e-08
            ],
            [
                -5.01542344,
                1e-08,
                26.78032751
            ]
        ],
        "epsilon_ionic_avg": 23.00843489,
        "epsilon_ionic_eig": [
            29.576892131018344,
            17.78555152898166,
            21.662861009999997
        ],
        "epsilon_electronic": [
            [
                5.00183258,
                0.0,
                0.1335673
            ],
            [
                0.0,
                5.44385456,
                0.0
            ],
            [
                0.13357494,
                0.0,
                5.72246975
            ]
        ],
        "epsilon_electronic_avg": 5.38938563,
        "epsilon_electronic_eig": [
            4.977871674550842,
            5.746430655449157,
            5.44385456
        ]
    },
    "phonon": {
        "lowest_freq": -0.09067756021875814,
        "frequency": [
            -0.09067756021875814,
            -0.07436476826935075,
            -0.008194571154223581,
            2.5898765836494184,
            3.1699575226127528,
            3.3956799355037703,
            4.072754070359891,
            4.482911652295554,
            4.5236770678245435,
            4.632392668048556,
            5.247915529582456,
            5.591339116789294,
            6.066725129649826,
            6.602659536485492,
            6.627732879252655,
            6.780783550878385,
            7.774751559613492,
            8.15804670148794,
            8.621945132528028,
            8.966222472281071,
            9.559347638049992,
            9.733246731835347,
            9.93652175818379,
            10.40843789304345,
            10.496073399670298,
            11.283332009177647,
            12.00505977595971,
            12.178234179025011,
            13.122571088786922,
            13.37343772295631,
            13.453985331870271,
            13.798949096043577,
            14.773090677856606,
            15.23987312266167,
            16.442208750754954,
            18.98218710843272
        ]
    },
    "born_effective_charge": {
        "avg_abs_trace": 2.187211666666667,
        "tensors": [
            [
                [
                    1.06291,
                    1e-05,
                    0.03016
                ],
                [
                    0.0,
                    1.24136,
                    0.0
                ],
                [
                    0.04902,
                    1e-05,
                    1.08443
                ]
            ],
            [
                [
                    1.06291,
                    -1e-05,
                    0.03016
                ],
                [
                    0.0,
                    1.24136,
                    0.0
                ],
                [
                    0.04902,
                    -1e-05,
                    1.08443
                ]
            ],
            [
                [
                    1.40005,
                    3e-05,
                    -0.04917
                ],
                [
                    0.0,
                    0.95493,
                    0.0
                ],
                [
                    -0.1435,
                    1e-05,
                    1.08004
                ]
            ],
            [
                [
                    1.40005,
                    -3e-05,
                    -0.04917
                ],
                [
                    0.0,
                    0.95497,
                    0.0
                ],
                [
                    -0.1435,
                    -1e-05,
                    1.08004
                ]
            ],
            [
                [
                    3.43455,
                    8e-05,
                    0.09999
                ],
                [
                    0.0,
                    4.58024,
                    0.0
                ],
                [
                    0.31304,
                    8e-05,
                    4.84637
                ]
            ],
            [
                [
                    3.43455,
                    -8e-05,
                    0.09999
                ],
                [
                    0.0,
                    4.58026,
                    0.0
                ],
                [
                    0.31304,
                    -8e-05,
                    4.84637
                ]
            ],
            [
                [
                    -2.01076,
                    -0.88981,
                    -0.71136
                ],
                [
                    -0.57338,
                    -2.61014,
                    -0.93905
                ],
                [
                    -0.52585,
                    -0.87998,
                    -2.42496
                ]
            ],
            [
                [
                    -2.01076,
                    0.88981,
                    -0.71136
                ],
                [
                    0.57338,
                    -2.61014,
                    0.93905
                ],
                [
                    -0.52585,
                    0.87998,
                    -2.42496
                ]
            ],
            [
                [
                    -1.94333,
                    -0.02054,
                    0.31542
                ],
                [
                    -0.12273,
                    -2.08334,
                    0.54425
                ],
                [
                    0.15375,
                    0.42357,
                    -2.29293
                ]
            ],
            [
                [
                    -1.94342,
                    0.02045,
                    0.31496
                ],
                [
                    0.12273,
                    -2.08334,
                    -0.54425
                ],
                [
                    0.15355,
                    -0.42373,
                    -2.29295
                ]
            ],
            [
                [
                    -1.94342,
                    -0.02045,
                    0.31496
                ],
                [
                    -0.12294,
                    -2.08307,
                    0.54412
                ],
                [
                    0.15355,
                    0.42373,
                    -2.29295
                ]
            ],
            [
                [
                    -1.94333,
                    0.02054,
                    0.31542
                ],
                [
                    0.12294,
                    -2.08307,
                    -0.54412
                ],
                [
                    0.15375,
                    -0.42357,
                    -2.29293
                ]
            ]
        ]
    },
    "band_gap": 1.0897000000000001,
    "is_direct": false,
    "formula": "Li2PbO3"
}