{
    "mp_id": "mp-21137",
    "nelements": 3,
    "nsites": 14,
    "elements": [
        "Ca",
        "O",
        "Pb"
    ],
    "structure": {
        "@module": "pymatgen.core.structure",
        "@class": "Structure",
        "charge": null,
        "lattice": {
            "matrix": [
                [
                    5.81813444,
                    0.0,
                    0.0
                ],
                [
                    0.0,
                    9.77664146,
                    0.0
                ],
                [
                    0.0,
                    0.0,
                    3.37365806
                ]
            ],
            "a": 5.81813444,
            "b": 9.77664146,
            "c": 3.37365806,
            "alpha": 90.0,
            "beta": 90.0,
            "gamma": 90.0,
            "volume": 191.89979157061074
        },
        "sites": [
            {
                "species": [
                    {
                        "element": "Ca",
                        "occu": 1
                    }
                ],
                "abc": [
                    0.42774309,
                    0.81806047,
                    0.5
                ],
                "xyz": [
                    2.4886668034010193,
                    7.997883907789087,
                    1.68682903
                ],
                "label": "Ca",
                "properties": {}
            },
            {
                "species": [
                    {
                        "element": "Ca",
                        "occu": 1
                    }
                ],
                "abc": [
                    0.57225691,
                    0.18193953,
                    0.5
                ],
                "xyz": [
                    3.3294676365989804,
                    1.7787575522109138,
                    1.68682903
                ],
                "label": "Ca",
                "properties": {}
            },
            {
                "species": [
                    {
                        "element": "Ca",
                        "occu": 1
                    }
                ],
                "abc": [
                    0.92774309,
                    0.68193953,
                    0.5
                ],
                "xyz": [
                    5.39773402340102,
                    6.667078282210913,
                    1.68682903
                ],
                "label": "Ca",
                "properties": {}
            },
            {
                "species": [
                    {
                        "element": "Ca",
                        "occu": 1
                    }
                ],
                "abc": [
                    0.07225691,
                    0.31806047,
                    0.5
                ],
                "xyz": [
                    0.42040041659898036,
                    3.109563177789086,
                    1.68682903
                ],
                "label": "Ca",
                "properties": {}
            },
            {
                "species": [
                    {
                        "element": "Pb",
                        "occu": 1
                    }
                ],
                "abc": [
                    0.5,
                    0.5,
                    0.0
                ],
                "xyz": [
                    2.90906722,
                    4.88832073,
                    0.0
                ],
                "label": "Pb",
                "properties": {}
            },
            {
                "species": [
                    {
                        "element": "Pb",
                        "occu": 1
                    }
                ],
                "abc": [
                    0.0,
                    0.0,
                    0.0
                ],
                "xyz": [
                    0.0,
                    0.0,
                    0.0
                ],
                "label": "Pb",
                "properties": {}
            },
            {
                "species": [
                    {
                        "element": "O",
                        "occu": 1
                    }
                ],
                "abc": [
                    0.1418771,
                    0.79642233,
                    0.0
                ],
                "xyz": [
                    0.825460041757324,
                    7.786335571147802,
                    0.0
                ],
                "label": "O",
                "properties": {}
            },
            {
                "species": [
                    {
                        "element": "O",
                        "occu": 1
                    }
                ],
                "abc": [
                    0.8581229,
                    0.20357767,
                    0.0
                ],
                "xyz": [
                    4.992674398242676,
                    1.9903058888521983,
                    0.0
                ],
                "label": "O",
                "properties": {}
            },
            {
                "species": [
                    {
                        "element": "O",
                        "occu": 1
                    }
                ],
                "abc": [
                    0.6418771,
                    0.70357767,
                    0.0
                ],
                "xyz": [
                    3.7345272617573237,
                    6.8786266188521985,
                    0.0
                ],
                "label": "O",
                "properties": {}
            },
            {
                "species": [
                    {
                        "element": "O",
                        "occu": 1
                    }
                ],
                "abc": [
                    0.3581229,
                    0.29642233,
                    0.0
                ],
                "xyz": [
                    2.083607178242676,
                    2.898014841147802,
                    0.0
                ],
                "label": "O",
                "properties": {}
            },
            {
                "species": [
                    {
                        "element": "O",
                        "occu": 1
                    }
                ],
                "abc": [
                    0.25773882,
                    0.54734566,
                    0.5
                ],
                "xyz": [
                    1.4995591051669606,
                    5.351202272507064,
                    1.68682903
                ],
                "label": "O",
                "properties": {}
            },
            {
                "species": [
                    {
                        "element": "O",
                        "occu": 1
                    }
                ],
                "abc": [
                    0.74226118,
                    0.45265434,
                    0.5
                ],
                "xyz": [
                    4.318575334833039,
                    4.425439187492937,
                    1.68682903
                ],
                "label": "O",
                "properties": {}
            },
            {
                "species": [
                    {
                        "element": "O",
                        "occu": 1
                    }
                ],
                "abc": [
                    0.24226118,
                    0.04734566,
                    0.5
                ],
                "xyz": [
                    1.409508114833039,
                    0.4628815425070636,
                    1.68682903
                ],
                "label": "O",
                "properties": {}
            },
            {
                "species": [
                    {
                        "element": "O",
                        "occu": 1
                    }
                ],
                "abc": [
                    0.75773882,
                    0.95265434,
                    0.5
                ],
                "xyz": [
                    4.408626325166961,
                    9.313759917492938,
                    1.68682903
                ],
                "label": "O",
                "properties": {}
            }
        ]
    },
    "spacegroup": {
        "source": "spglib",
        "symbol": "Pbam",
        "number": 55,
        "point_group": "mmm",
        "crystal_system": "orthorhombic",
        "hall": "-P 2 2ab"
    },
    "dielectric": {
        "epsilon_ionic": [
            [
                8.17624477,
                -3e-08,
                3e-08
            ],
            [
                -3e-08,
                11.40933025,
                0.0
            ],
            [
                3e-08,
                0.0,
                8.55121751
            ]
        ],
        "epsilon_ionic_avg": 9.378930843333334,
        "epsilon_ionic_eig": [
            8.176244769999995,
            8.551217510000008,
            11.40933025
        ],
        "epsilon_electronic": [
            [
                4.50271451,
                0.0,
                0.0
            ],
            [
                0.0,
                4.72551236,
                0.0
            ],
            [
                0.0,
                0.0,
                4.8180524
            ]
        ],
        "epsilon_electronic_avg": 4.6820930899999995,
        "epsilon_electronic_eig": [
            4.50271451,
            4.72551236,
            4.8180524
        ]
    },
    "phonon": {
        "lowest_freq": -0.017616060173427307,
        "frequency": [
            -0.017616060173427307,
            -0.009774693090402497,
            -0.007726543641232405,
            2.2944870697942226,
            2.431973239221038,
            3.2743410418607763,
            3.6128589502993003,
            3.9139056818454665,
            4.207660370011975,
            4.247415704392671,
            5.106147199043426,
            5.183451104469857,
            5.649371390740512,
            5.849027259930872,
            6.2798659871541656,
            6.388776471700861,
            7.338514031193297,
            7.3510195295076795,
            7.427892567863863,
            9.107406687031704,
            9.207145052015628,
            9.317344735566573,
            9.368461384699922,
            9.546902838032457,
            9.620217292019754,
            9.78389731787731,
            9.932079919080536,
            10.048341398944544,
            10.0730133157806,
            10.0996983437607,
            11.022342142705535,
            11.137040105000803,
            11.836805262824495,
            12.916658732544727,
            12.939978492071154,
            12.967472608318712,
            12.975901432158166,
            15.081279377512415,
            15.12717026406602,
            16.029378245424432,
            16.21041124417807,
            16.512305787914197
        ]
    },
    "born_effective_charge": {
        "avg_abs_trace": 2.490466190476191,
        "tensors": [
            [
                [
                    2.77746,
                    -0.04427,
                    0.0
                ],
                [
                    -0.50804,
                    2.27543,
                    0.0
                ],
                [
                    2e-05,
                    -0.0001,
                    2.17015
                ]
            ],
            [
                [
                    2.77766,
                    -0.04372,
                    0.0
                ],
                [
                    -0.50784,
                    2.27551,
                    0.0
                ],
                [
                    -2e-05,
                    0.0001,
                    2.17015
                ]
            ],
            [
                [
                    2.77746,
                    0.04427,
                    0.0
                ],
                [
                    0.50784,
                    2.27551,
                    0.0
                ],
                [
                    2e-05,
                    0.0001,
                    2.17015
                ]
            ],
            [
                [
                    2.77766,
                    0.04372,
                    0.0
                ],
                [
                    0.50804,
                    2.27543,
                    0.0
                ],
                [
                    -2e-05,
                    -0.0001,
                    2.17015
                ]
            ],
            [
                [
                    3.05875,
                    -0.01065,
                    0.0
                ],
                [
                    -0.11454,
                    3.72619,
                    0.0
                ],
                [
                    0.0,
                    0.0,
                    4.9186
                ]
            ],
            [
                [
                    3.05875,
                    0.01065,
                    0.0
                ],
                [
                    0.11454,
                    3.72619,
                    0.0
                ],
                [
                    0.0,
                    0.0,
                    4.9186
                ]
            ],
            [
                [
                    -1.98584,
                    0.04629,
                    0.0
                ],
                [
                    0.07692,
                    -2.17743,
                    0.0
                ],
                [
                    1e-05,
                    -0.00013,
                    -2.16573
                ]
            ],
            [
                [
                    -1.98614,
                    0.04699,
                    0.0
                ],
                [
                    0.07675,
                    -2.17726,
                    0.0
                ],
                [
                    -1e-05,
                    0.00013,
                    -2.16573
                ]
            ],
            [
                [
                    -1.98584,
                    -0.04629,
                    0.0
                ],
                [
                    -0.07675,
                    -2.17726,
                    0.0
                ],
                [
                    1e-05,
                    0.00013,
                    -2.16573
                ]
            ],
            [
                [
                    -1.98614,
                    -0.04699,
                    0.0
                ],
                [
                    -0.07692,
                    -2.17743,
                    0.0
                ],
                [
                    -1e-05,
                    -0.00013,
                    -2.16573
                ]
            ],
            [
                [
                    -2.32107,
                    0.288,
                    0.0
                ],
                [
                    0.31351,
                    -1.96105,
                    0.0
                ],
                [
                    0.00035,
                    -0.00011,
                    -2.46372
                ]
            ],
            [
                [
                    -2.32081,
                    0.28852,
                    0.0
                ],
                [
                    0.31353,
                    -1.96139,
                    0.0
                ],
                [
                    -0.00035,
                    0.00011,
                    -2.46372
                ]
            ],
            [
                [
                    -2.32081,
                    -0.28852,
                    0.0
                ],
                [
                    -0.31351,
                    -1.96105,
                    0.0
                ],
                [
                    -0.00035,
                    -0.00011,
                    -2.46372
                ]
            ],
            [
                [
                    -2.32107,
                    -0.288,
                    0.0
                ],
                [
                    -0.31353,
                    -1.96139,
                    0.0
                ],
                [
                    0.00035,
                    0.00011,
                    -2.46372
                ]
            ]
        ]
    },
    "band_gap": 1.5411999999999995,
    "is_direct": false,
    "formula": "Ca2PbO4"
}