{
    "mp_id": "mp-28244",
    "nelements": 3,
    "nsites": 32,
    "elements": [
        "B",
        "O",
        "Tl"
    ],
    "structure": {
        "@module": "pymatgen.core.structure",
        "@class": "Structure",
        "charge": null,
        "lattice": {
            "matrix": [
                [
                    7.34144089,
                    2.21e-06,
                    0.0
                ],
                [
                    -2.21e-06,
                    7.34144089,
                    0.0
                ],
                [
                    0.0,
                    0.0,
                    9.38129657
                ]
            ],
            "a": 7.3414408900003325,
            "b": 7.3414408900003325,
            "c": 9.38129657,
            "alpha": 90.0,
            "beta": 90.0,
            "gamma": 90.0,
            "volume": 505.62143663681644
        },
        "sites": [
            {
                "species": [
                    {
                        "element": "Tl",
                        "occu": 1
                    }
                ],
                "abc": [
                    0.74682636,
                    0.97744107,
                    0.9065796
                ],
                "xyz": [
                    5.482779416889096,
                    7.175827489349608,
                    8.504892091911973
                ],
                "label": "Tl",
                "properties": {}
            },
            {
                "species": [
                    {
                        "element": "Tl",
                        "occu": 1
                    }
                ],
                "abc": [
                    0.02255893,
                    0.74682636,
                    0.1565796
                ],
                "xyz": [
                    0.1656134006503921,
                    5.482781626889096,
                    1.4689196644119722
                ],
                "label": "Tl",
                "properties": {}
            },
            {
                "species": [
                    {
                        "element": "Tl",
                        "occu": 1
                    }
                ],
                "abc": [
                    0.97744107,
                    0.25317364,
                    0.6565796
                ],
                "xyz": [
                    7.175825279349608,
                    1.8586614731109041,
                    6.159567949411972
                ],
                "label": "Tl",
                "properties": {}
            },
            {
                "species": [
                    {
                        "element": "Tl",
                        "occu": 1
                    }
                ],
                "abc": [
                    0.25317364,
                    0.02255893,
                    0.4065796
                ],
                "xyz": [
                    1.8586592631109042,
                    0.1656156106503921,
                    3.8142438069119717
                ],
                "label": "Tl",
                "properties": {}
            },
            {
                "species": [
                    {
                        "element": "Tl",
                        "occu": 1
                    }
                ],
                "abc": [
                    0.7361873,
                    0.72960409,
                    0.49360682
                ],
                "xyz": [
                    5.404673934493658,
                    5.356346926811174,
                    4.6306719673946075
                ],
                "label": "Tl",
                "properties": {}
            },
            {
                "species": [
                    {
                        "element": "Tl",
                        "occu": 1
                    }
                ],
                "abc": [
                    0.27039591,
                    0.7361873,
                    0.74360682
                ],
                "xyz": [
                    1.9850939631888271,
                    5.404676144493658,
                    6.9759961098946075
                ],
                "label": "Tl",
                "properties": {}
            },
            {
                "species": [
                    {
                        "element": "Tl",
                        "occu": 1
                    }
                ],
                "abc": [
                    0.72960409,
                    0.2638127,
                    0.24360682
                ],
                "xyz": [
                    5.356344716811173,
                    1.936766955506342,
                    2.2853478248946075
                ],
                "label": "Tl",
                "properties": {}
            },
            {
                "species": [
                    {
                        "element": "Tl",
                        "occu": 1
                    }
                ],
                "abc": [
                    0.2638127,
                    0.27039591,
                    0.99360682
                ],
                "xyz": [
                    1.9367647455063421,
                    1.985096173188827,
                    9.321320252394607
                ],
                "label": "Tl",
                "properties": {}
            },
            {
                "species": [
                    {
                        "element": "B",
                        "occu": 1
                    }
                ],
                "abc": [
                    0.54804699,
                    0.59651644,
                    0.02121732
                ],
                "xyz": [
                    4.023453263726089,
                    4.379291395357081,
                    0.1990459713405924
                ],
                "label": "B",
                "properties": {}
            },
            {
                "species": [
                    {
                        "element": "B",
                        "occu": 1
                    }
                ],
                "abc": [
                    0.40348356,
                    0.54804699,
                    0.27121732
                ],
                "xyz": [
                    2.962149494642921,
                    4.023455473726089,
                    2.5443701138405923
                ],
                "label": "B",
                "properties": {}
            },
            {
                "species": [
                    {
                        "element": "B",
                        "occu": 1
                    }
                ],
                "abc": [
                    0.59651644,
                    0.45195301,
                    0.77121732
                ],
                "xyz": [
                    4.37928918535708,
                    3.3179876262739114,
                    7.235018398840592
                ],
                "label": "B",
                "properties": {}
            },
            {
                "species": [
                    {
                        "element": "B",
                        "occu": 1
                    }
                ],
                "abc": [
                    0.45195301,
                    0.40348356,
                    0.52121732
                ],
                "xyz": [
                    3.317985416273911,
                    2.962151704642921,
                    4.889694256340592
                ],
                "label": "B",
                "properties": {}
            },
            {
                "species": [
                    {
                        "element": "B",
                        "occu": 1
                    }
                ],
                "abc": [
                    0.86808177,
                    0.54398529,
                    0.91976435
                ],
                "xyz": [
                    6.372969799934085,
                    3.9936377700252197,
                    8.62858214186328
                ],
                "label": "B",
                "properties": {}
            },
            {
                "species": [
                    {
                        "element": "B",
                        "occu": 1
                    }
                ],
                "abc": [
                    0.45601471,
                    0.86808177,
                    0.16976435
                ],
                "xyz": [
                    3.34780311997478,
                    6.3729720099340845,
                    1.5926097143632796
                ],
                "label": "B",
                "properties": {}
            },
            {
                "species": [
                    {
                        "element": "B",
                        "occu": 1
                    }
                ],
                "abc": [
                    0.54398529,
                    0.13191823,
                    0.66976435
                ],
                "xyz": [
                    3.99363556002522,
                    0.9684710900659156,
                    6.283257999363279
                ],
                "label": "B",
                "properties": {}
            },
            {
                "species": [
                    {
                        "element": "B",
                        "occu": 1
                    }
                ],
                "abc": [
                    0.13191823,
                    0.45601471,
                    0.41976435
                ],
                "xyz": [
                    0.9684688800659156,
                    3.34780532997478,
                    3.9379338568632796
                ],
                "label": "B",
                "properties": {}
            },
            {
                "species": [
                    {
                        "element": "O",
                        "occu": 1
                    }
                ],
                "abc": [
                    0.20680492,
                    0.50210658,
                    0.28862942
                ],
                "xyz": [
                    1.518244986285637,
                    3.6861862345889294,
                    2.7077181878470897
                ],
                "label": "O",
                "properties": {}
            },
            {
                "species": [
                    {
                        "element": "O",
                        "occu": 1
                    }
                ],
                "abc": [
                    0.49789342,
                    0.20680492,
                    0.53862942
                ],
                "xyz": [
                    3.6552546554110705,
                    1.5182471962856372,
                    5.05304233034709
                ],
                "label": "O",
                "properties": {}
            },
            {
                "species": [
                    {
                        "element": "O",
                        "occu": 1
                    }
                ],
                "abc": [
                    0.50210658,
                    0.79319508,
                    0.03862942
                ],
                "xyz": [
                    3.686184024588929,
                    5.823195903714364,
                    0.36239404534708936
                ],
                "label": "O",
                "properties": {}
            },
            {
                "species": [
                    {
                        "element": "O",
                        "occu": 1
                    }
                ],
                "abc": [
                    0.79319508,
                    0.49789342,
                    0.78862942
                ],
                "xyz": [
                    5.823193693714364,
                    3.655256865411071,
                    7.39836647284709
                ],
                "label": "O",
                "properties": {}
            },
            {
                "species": [
                    {
                        "element": "O",
                        "occu": 1
                    }
                ],
                "abc": [
                    0.51397597,
                    0.4611325,
                    0.38087885
                ],
                "xyz": [
                    3.773323183532588,
                    3.385378127094819,
                    3.5731374490905443
                ],
                "label": "O",
                "properties": {}
            },
            {
                "species": [
                    {
                        "element": "O",
                        "occu": 1
                    }
                ],
                "abc": [
                    0.5388675,
                    0.51397597,
                    0.63087885
                ],
                "xyz": [
                    3.956062762905182,
                    3.773325393532588,
                    5.918461591590544
                ],
                "label": "O",
                "properties": {}
            },
            {
                "species": [
                    {
                        "element": "O",
                        "occu": 1
                    }
                ],
                "abc": [
                    0.4611325,
                    0.48602403,
                    0.13087885
                ],
                "xyz": [
                    3.3853759170948186,
                    3.5681177064674117,
                    1.2278133065905443
                ],
                "label": "O",
                "properties": {}
            },
            {
                "species": [
                    {
                        "element": "O",
                        "occu": 1
                    }
                ],
                "abc": [
                    0.48602403,
                    0.5388675,
                    0.88087885
                ],
                "xyz": [
                    3.5681154964674118,
                    3.956064972905182,
                    8.263785734090545
                ],
                "label": "O",
                "properties": {}
            },
            {
                "species": [
                    {
                        "element": "O",
                        "occu": 1
                    }
                ],
                "abc": [
                    0.25054227,
                    0.42379447,
                    0.53399832
                ],
                "xyz": [
                    1.8393403290656418,
                    3.1112626047122953,
                    5.009596607801763
                ],
                "label": "O",
                "properties": {}
            },
            {
                "species": [
                    {
                        "element": "O",
                        "occu": 1
                    }
                ],
                "abc": [
                    0.57620553,
                    0.25054227,
                    0.78399832
                ],
                "xyz": [
                    4.230178285287705,
                    1.839342539065642,
                    7.354920750301763
                ],
                "label": "O",
                "properties": {}
            },
            {
                "species": [
                    {
                        "element": "O",
                        "occu": 1
                    }
                ],
                "abc": [
                    0.42379447,
                    0.74945773,
                    0.28399832
                ],
                "xyz": [
                    3.111260394712295,
                    5.502100560934359,
                    2.6642724653017624
                ],
                "label": "O",
                "properties": {}
            },
            {
                "species": [
                    {
                        "element": "O",
                        "occu": 1
                    }
                ],
                "abc": [
                    0.74945773,
                    0.57620553,
                    0.03399832
                ],
                "xyz": [
                    5.502098350934359,
                    4.230180495287705,
                    0.3189483228017624
                ],
                "label": "O",
                "properties": {}
            },
            {
                "species": [
                    {
                        "element": "O",
                        "occu": 1
                    }
                ],
                "abc": [
                    0.95067249,
                    0.43717405,
                    0.44082533
                ],
                "xyz": [
                    6.979304924929465,
                    3.2094895477031073,
                    4.135513156298118
                ],
                "label": "O",
                "properties": {}
            },
            {
                "species": [
                    {
                        "element": "O",
                        "occu": 1
                    }
                ],
                "abc": [
                    0.56282595,
                    0.95067249,
                    0.69082533
                ],
                "xyz": [
                    4.131951342296893,
                    6.979307134929465,
                    6.480837298798118
                ],
                "label": "O",
                "properties": {}
            },
            {
                "species": [
                    {
                        "element": "O",
                        "occu": 1
                    }
                ],
                "abc": [
                    0.43717405,
                    0.04932751,
                    0.19082533
                ],
                "xyz": [
                    3.2094873377031075,
                    0.3621359650705344,
                    1.790189013798118
                ],
                "label": "O",
                "properties": {}
            },
            {
                "species": [
                    {
                        "element": "O",
                        "occu": 1
                    }
                ],
                "abc": [
                    0.04932751,
                    0.56282595,
                    0.94082533
                ],
                "xyz": [
                    0.3621337550705344,
                    4.131953552296893,
                    8.826161441298119
                ],
                "label": "O",
                "properties": {}
            }
        ]
    },
    "spacegroup": {
        "source": "spglib",
        "symbol": "P4_1",
        "number": 76,
        "point_group": "4",
        "crystal_system": "tetragonal",
        "hall": "P 4w"
    },
    "dielectric": {
        "epsilon_ionic": [
            [
                8.25230175,
                1.4e-07,
                4.229e-05
            ],
            [
                1.4e-07,
                8.25230287,
                4.237e-05
            ],
            [
                4.229e-05,
                4.237e-05,
                11.57653338
            ]
        ],
        "epsilon_ionic_avg": 9.360379333333336,
        "epsilon_ionic_eig": [
            11.576533381078045,
            8.252301732357681,
            8.252302886564282
        ],
        "epsilon_electronic": [
            [
                4.07490588,
                5.6e-06,
                0.0
            ],
            [
                -5.6e-06,
                4.07490588,
                -0.0
            ],
            [
                0.0,
                0.0,
                4.48422016
            ]
        ],
        "epsilon_electronic_avg": 4.211343973333333,
        "epsilon_electronic_eig": [
            4.07490588,
            4.07490588,
            4.48422016
        ]
    },
    "phonon": {
        "lowest_freq": -0.049182986338994115,
        "frequency": [
            -0.049182986338994115,
            -0.049182986338994115,
            -0.04376448035831476,
            0.5563716079244286,
            0.764934739893509,
            0.7881855576413289,
            0.7881855576413289,
            0.93028102415915,
            0.9979085538098741,
            1.0950780419317374,
            1.0950780419317374,
            1.1067151008544074,
            1.1620958957474925,
            1.4578592016402065,
            1.4578592016402065,
            1.4757259000558784,
            1.496867296480802,
            1.7503729875098817,
            1.7503729875098817,
            1.8394666959611186,
            1.9657623701501437,
            2.1831744591931876,
            2.184153066452007,
            2.184153066452007,
            2.3465493658098735,
            2.6086022467830654,
            3.5541640584121668,
            3.5541640584121668,
            3.7480060426017348,
            3.8805767565978844,
            3.9409793990400486,
            3.9409793990400486,
            4.489077606403724,
            4.6978091784999005,
            4.6978091784999005,
            5.1609778565907725,
            5.5133491426199255,
            6.919758364750321,
            7.407456024081014,
            7.407456024081014,
            8.45269467880629,
            9.48210715576462,
            9.915456418399708,
            9.915456418399708,
            10.810242076936284,
            10.810242076936284,
            10.894714127992792,
            10.979334797101176,
            11.783514079388608,
            11.826153920480529,
            12.10880083273193,
            12.10880083273193,
            13.671146367914323,
            13.905371278000583,
            13.905371278000583,
            14.266786300404341,
            15.922953311565514,
            17.488078039336266,
            17.488078039336266,
            18.313683657649108,
            18.389207005823092,
            19.86955304143614,
            19.86955304143614,
            20.023187700818017,
            20.08671774841388,
            20.17022170755969,
            20.17022170755969,
            20.761487222118248,
            21.102536483746118,
            21.102536483746118,
            21.141449135661993,
            24.34416833699966,
            25.385255804744357,
            26.26673147560419,
            26.26673147560419,
            26.721341385435935,
            27.038667038567425,
            28.240862375551597,
            28.240862375551597,
            29.38192475594056,
            29.664233304830777,
            30.170669026891836,
            30.175045659158044,
            30.175045659158044,
            31.423642494000088,
            31.643437905397896,
            32.22438651308907,
            32.22438651308907,
            35.79923065470446,
            37.10784462698965,
            37.10784462698965,
            37.5712706633003,
            39.6552708698676,
            40.17008553051697,
            40.48364952921732,
            40.48364952921732
        ]
    },
    "born_effective_charge": {
        "avg_abs_trace": 2.01509,
        "tensors": [
            [
                [
                    1.74419,
                    0.172,
                    0.29097
                ],
                [
                    0.23619,
                    1.49715,
                    -0.43726
                ],
                [
                    0.29512,
                    -0.56009,
                    2.00192
                ]
            ],
            [
                [
                    1.49715,
                    -0.23619,
                    0.43727
                ],
                [
                    -0.172,
                    1.74419,
                    0.29097
                ],
                [
                    0.56009,
                    0.29512,
                    2.00192
                ]
            ],
            [
                [
                    1.49715,
                    -0.23619,
                    -0.43726
                ],
                [
                    -0.172,
                    1.74419,
                    -0.29097
                ],
                [
                    -0.56009,
                    -0.29512,
                    2.00192
                ]
            ],
            [
                [
                    1.74419,
                    0.172,
                    -0.29097
                ],
                [
                    0.23619,
                    1.49715,
                    0.43727
                ],
                [
                    -0.29512,
                    0.56009,
                    2.00192
                ]
            ],
            [
                [
                    1.70816,
                    0.0606,
                    -0.26916
                ],
                [
                    -0.10256,
                    2.06787,
                    0.16637
                ],
                [
                    -0.32555,
                    0.14555,
                    1.46746
                ]
            ],
            [
                [
                    2.06785,
                    0.10256,
                    -0.16635
                ],
                [
                    -0.0606,
                    1.70816,
                    -0.26916
                ],
                [
                    -0.14555,
                    -0.32555,
                    1.46746
                ]
            ],
            [
                [
                    2.06787,
                    0.10256,
                    0.16637
                ],
                [
                    -0.06061,
                    1.70815,
                    0.26917
                ],
                [
                    0.14555,
                    0.32555,
                    1.46746
                ]
            ],
            [
                [
                    1.70815,
                    0.06061,
                    0.26917
                ],
                [
                    -0.10256,
                    2.06785,
                    -0.16635
                ],
                [
                    0.32555,
                    -0.14555,
                    1.46746
                ]
            ],
            [
                [
                    2.70796,
                    0.19285,
                    -0.07716
                ],
                [
                    0.178,
                    2.53542,
                    -0.12884
                ],
                [
                    -0.10187,
                    0.21706,
                    2.43666
                ]
            ],
            [
                [
                    2.53542,
                    -0.17799,
                    0.12884
                ],
                [
                    -0.19285,
                    2.70796,
                    -0.07716
                ],
                [
                    -0.21706,
                    -0.10187,
                    2.43666
                ]
            ],
            [
                [
                    2.53542,
                    -0.178,
                    -0.12884
                ],
                [
                    -0.19285,
                    2.70796,
                    0.07716
                ],
                [
                    0.21706,
                    0.10187,
                    2.43666
                ]
            ],
            [
                [
                    2.70796,
                    0.19285,
                    0.07716
                ],
                [
                    0.17799,
                    2.53542,
                    0.12884
                ],
                [
                    0.10187,
                    -0.21706,
                    2.43666
                ]
            ],
            [
                [
                    2.82313,
                    0.20195,
                    0.13455
                ],
                [
                    0.54978,
                    0.62282,
                    1.04794
                ],
                [
                    0.61126,
                    0.66472,
                    2.56836
                ]
            ],
            [
                [
                    0.62282,
                    -0.54978,
                    -1.04794
                ],
                [
                    -0.20195,
                    2.82313,
                    0.13455
                ],
                [
                    -0.66472,
                    0.61126,
                    2.56836
                ]
            ],
            [
                [
                    0.62282,
                    -0.54978,
                    1.04794
                ],
                [
                    -0.20195,
                    2.82312,
                    -0.13456
                ],
                [
                    0.66472,
                    -0.61126,
                    2.56836
                ]
            ],
            [
                [
                    2.82312,
                    0.20195,
                    -0.13456
                ],
                [
                    0.54978,
                    0.62282,
                    -1.04794
                ],
                [
                    -0.61126,
                    -0.66472,
                    2.56836
                ]
            ],
            [
                [
                    -2.16389,
                    0.08313,
                    0.36153
                ],
                [
                    -0.12537,
                    -1.39253,
                    0.80802
                ],
                [
                    0.54684,
                    0.74021,
                    -2.21223
                ]
            ],
            [
                [
                    -1.39252,
                    0.12536,
                    -0.80803
                ],
                [
                    -0.08313,
                    -2.16389,
                    0.36153
                ],
                [
                    -0.74021,
                    0.54684,
                    -2.21223
                ]
            ],
            [
                [
                    -1.39253,
                    0.12537,
                    0.80802
                ],
                [
                    -0.08314,
                    -2.16388,
                    -0.36154
                ],
                [
                    0.74021,
                    -0.54684,
                    -2.21223
                ]
            ],
            [
                [
                    -2.16388,
                    0.08314,
                    -0.36154
                ],
                [
                    -0.12536,
                    -1.39252,
                    -0.80803
                ],
                [
                    -0.54684,
                    -0.74021,
                    -2.21223
                ]
            ],
            [
                [
                    -2.00435,
                    0.18584,
                    0.05229
                ],
                [
                    0.29004,
                    -1.77315,
                    0.19571
                ],
                [
                    0.14149,
                    0.05789,
                    -2.44262
                ]
            ],
            [
                [
                    -1.77315,
                    -0.29004,
                    -0.19571
                ],
                [
                    -0.18584,
                    -2.00435,
                    0.05229
                ],
                [
                    -0.05789,
                    0.14149,
                    -2.44262
                ]
            ],
            [
                [
                    -1.77315,
                    -0.29004,
                    0.19571
                ],
                [
                    -0.18585,
                    -2.00435,
                    -0.05229
                ],
                [
                    0.05789,
                    -0.14149,
                    -2.44262
                ]
            ],
            [
                [
                    -2.00435,
                    0.18585,
                    -0.05229
                ],
                [
                    0.29004,
                    -1.77315,
                    -0.19571
                ],
                [
                    -0.14149,
                    -0.05789,
                    -2.44262
                ]
            ],
            [
                [
                    -2.86302,
                    -0.22245,
                    -0.29874
                ],
                [
                    -0.12487,
                    -1.32849,
                    0.16717
                ],
                [
                    -0.19556,
                    0.11013,
                    -1.79265
                ]
            ],
            [
                [
                    -1.32849,
                    0.12487,
                    -0.16717
                ],
                [
                    0.22245,
                    -2.86302,
                    -0.29874
                ],
                [
                    -0.11013,
                    -0.19556,
                    -1.79265
                ]
            ],
            [
                [
                    -1.32849,
                    0.12487,
                    0.16717
                ],
                [
                    0.22245,
                    -2.86304,
                    0.29873
                ],
                [
                    0.11013,
                    0.19556,
                    -1.79265
                ]
            ],
            [
                [
                    -2.86304,
                    -0.22245,
                    0.29873
                ],
                [
                    -0.12487,
                    -1.32849,
                    -0.16717
                ],
                [
                    0.19556,
                    -0.11013,
                    -1.79265
                ]
            ],
            [
                [
                    -2.37171,
                    0.14347,
                    -0.12241
                ],
                [
                    -0.08385,
                    -1.80952,
                    0.40113
                ],
                [
                    0.13104,
                    0.47697,
                    -2.0269
                ]
            ],
            [
                [
                    -1.80949,
                    0.08378,
                    -0.40114
                ],
                [
                    -0.14347,
                    -2.37171,
                    -0.12241
                ],
                [
                    -0.47697,
                    0.13104,
                    -2.0269
                ]
            ],
            [
                [
                    -1.80952,
                    0.08385,
                    0.40113
                ],
                [
                    -0.14345,
                    -2.37178,
                    0.1224
                ],
                [
                    0.47697,
                    -0.13104,
                    -2.0269
                ]
            ],
            [
                [
                    -2.37178,
                    0.14345,
                    0.1224
                ],
                [
                    -0.08378,
                    -1.80949,
                    -0.40114
                ],
                [
                    -0.13104,
                    -0.47697,
                    -2.0269
                ]
            ]
        ]
    },
    "band_gap": 2.7816,
    "is_direct": false,
    "formula": "TlBO2"
}