{
    "mp_id": "mp-20694",
    "nelements": 3,
    "nsites": 14,
    "elements": [
        "K",
        "O",
        "Pb"
    ],
    "structure": {
        "@module": "pymatgen.core.structure",
        "@class": "Structure",
        "charge": null,
        "lattice": {
            "matrix": [
                [
                    -4.23510062,
                    4.23510062,
                    4.23510062
                ],
                [
                    4.23510062,
                    -4.23510062,
                    4.23510062
                ],
                [
                    4.23510062,
                    4.23510062,
                    -4.23510062
                ]
            ],
            "a": 7.335409449006453,
            "b": 7.335409449006453,
            "c": 7.335409449006453,
            "alpha": 109.47122063449069,
            "beta": 109.47122063449069,
            "gamma": 109.47122063449069,
            "volume": 303.84436772259926
        },
        "sites": [
            {
                "species": [
                    {
                        "element": "K",
                        "occu": 1
                    }
                ],
                "abc": [
                    0.5,
                    0.0,
                    0.45012627
                ],
                "xyz": [
                    -0.21122026484471257,
                    4.0238803551552875,
                    0.21122026484471257
                ],
                "label": "K",
                "properties": {}
            },
            {
                "species": [
                    {
                        "element": "K",
                        "occu": 1
                    }
                ],
                "abc": [
                    0.04987373,
                    0.04987373,
                    0.04987373
                ],
                "xyz": [
                    0.2112202648447126,
                    0.2112202648447126,
                    0.2112202648447126
                ],
                "label": "K",
                "properties": {}
            },
            {
                "species": [
                    {
                        "element": "K",
                        "occu": 1
                    }
                ],
                "abc": [
                    0.45012627,
                    0.5,
                    0.0
                ],
                "xyz": [
                    0.21122026484471257,
                    -0.21122026484471257,
                    4.0238803551552875
                ],
                "label": "K",
                "properties": {}
            },
            {
                "species": [
                    {
                        "element": "K",
                        "occu": 1
                    }
                ],
                "abc": [
                    0.0,
                    0.45012627,
                    0.5
                ],
                "xyz": [
                    4.0238803551552875,
                    0.21122026484471257,
                    -0.21122026484471257
                ],
                "label": "K",
                "properties": {}
            },
            {
                "species": [
                    {
                        "element": "Pb",
                        "occu": 1
                    }
                ],
                "abc": [
                    0.0,
                    0.98475618,
                    0.5
                ],
                "xyz": [
                    6.288091818466832,
                    -2.0529911984668314,
                    2.0529911984668314
                ],
                "label": "Pb",
                "properties": {}
            },
            {
                "species": [
                    {
                        "element": "Pb",
                        "occu": 1
                    }
                ],
                "abc": [
                    0.98475618,
                    0.5,
                    0.0
                ],
                "xyz": [
                    -2.0529911984668314,
                    2.0529911984668314,
                    6.288091818466832
                ],
                "label": "Pb",
                "properties": {}
            },
            {
                "species": [
                    {
                        "element": "Pb",
                        "occu": 1
                    }
                ],
                "abc": [
                    0.51524382,
                    0.51524382,
                    0.51524382
                ],
                "xyz": [
                    2.1821094215331684,
                    2.1821094215331684,
                    2.1821094215331684
                ],
                "label": "Pb",
                "properties": {}
            },
            {
                "species": [
                    {
                        "element": "Pb",
                        "occu": 1
                    }
                ],
                "abc": [
                    0.5,
                    0.0,
                    0.98475618
                ],
                "xyz": [
                    2.0529911984668314,
                    6.288091818466832,
                    -2.0529911984668314
                ],
                "label": "Pb",
                "properties": {}
            },
            {
                "species": [
                    {
                        "element": "O",
                        "occu": 1
                    }
                ],
                "abc": [
                    0.95916165,
                    0.20916165,
                    0.75
                ],
                "xyz": [
                    0.0,
                    6.352650929999999,
                    1.7716412671904465
                ],
                "label": "O",
                "properties": {}
            },
            {
                "species": [
                    {
                        "element": "O",
                        "occu": 1
                    }
                ],
                "abc": [
                    0.54083835,
                    0.29083835,
                    0.25
                ],
                "xyz": [
                    2.220446049250313e-16,
                    2.1175503099999995,
                    2.4634593528095543
                ],
                "label": "O",
                "properties": {}
            },
            {
                "species": [
                    {
                        "element": "O",
                        "occu": 1
                    }
                ],
                "abc": [
                    0.20916165,
                    0.75,
                    0.95916165
                ],
                "xyz": [
                    6.352650929999999,
                    1.7716412671904465,
                    0.0
                ],
                "label": "O",
                "properties": {}
            },
            {
                "species": [
                    {
                        "element": "O",
                        "occu": 1
                    }
                ],
                "abc": [
                    0.75,
                    0.95916165,
                    0.20916165
                ],
                "xyz": [
                    1.7716412671904462,
                    -2.220446049250313e-16,
                    6.352650929999999
                ],
                "label": "O",
                "properties": {}
            },
            {
                "species": [
                    {
                        "element": "O",
                        "occu": 1
                    }
                ],
                "abc": [
                    0.25,
                    0.54083835,
                    0.29083835
                ],
                "xyz": [
                    2.4634593528095543,
                    2.220446049250313e-16,
                    2.1175503099999995
                ],
                "label": "O",
                "properties": {}
            },
            {
                "species": [
                    {
                        "element": "O",
                        "occu": 1
                    }
                ],
                "abc": [
                    0.29083835,
                    0.25,
                    0.54083835
                ],
                "xyz": [
                    2.1175503099999995,
                    2.4634593528095543,
                    4.440892098500626e-16
                ],
                "label": "O",
                "properties": {}
            }
        ]
    },
    "spacegroup": {
        "source": "spglib",
        "symbol": "I2_13",
        "number": 199,
        "point_group": "23",
        "crystal_system": "cubic",
        "hall": "I 2b 2c 3"
    },
    "dielectric": {
        "epsilon_ionic": [
            [
                4.9663191,
                1e-08,
                5e-08
            ],
            [
                1e-08,
                4.96659437,
                5e-08
            ],
            [
                5e-08,
                5e-08,
                4.9662992
            ]
        ],
        "epsilon_ionic_avg": 4.966404223333332,
        "epsilon_ionic_eig": [
            4.9663191001252525,
            4.96629919986591,
            4.966594370008833
        ],
        "epsilon_electronic": [
            [
                5.17637286,
                0.0,
                0.0
            ],
            [
                0.0,
                5.17637286,
                -0.0
            ],
            [
                -0.0,
                0.0,
                5.17637286
            ]
        ],
        "epsilon_electronic_avg": 5.17637286,
        "epsilon_electronic_eig": [
            5.17637286,
            5.17637286,
            5.17637286
        ]
    },
    "phonon": {
        "lowest_freq": -0.025576786373136345,
        "frequency": [
            -0.025576786373136345,
            -0.025576786373136345,
            -0.025576786373136345,
            1.624413908023427,
            1.624413908023427,
            1.624413908023427,
            2.438901391084489,
            2.438901391084489,
            2.438901391084489,
            2.8952792832305576,
            2.8952792832305576,
            3.0693038032145323,
            3.232642242177082,
            3.232642242177082,
            3.232642242177082,
            3.647692128093598,
            3.647692128093598,
            3.647692128093598,
            4.4487144559886564,
            4.4487144559886564,
            4.4487144559886564,
            4.709773267387933,
            4.857916293949947,
            4.857916293949947,
            4.971545407946186,
            4.971545407946186,
            4.971545407946186,
            5.506292291679696,
            5.506292291679696,
            5.506292291679696,
            5.813046683605359,
            5.813046683605359,
            6.260715571839537,
            7.7403587906744615,
            7.7403587906744615,
            7.7403587906744615,
            13.890353666303033,
            13.890353666303033,
            13.890353666303033,
            17.46596276894676,
            17.46596276894676,
            17.46596276894676
        ]
    },
    "born_effective_charge": {
        "avg_abs_trace": 2.029717142857143,
        "tensors": [
            [
                [
                    1.14602,
                    -0.01815,
                    0.01738
                ],
                [
                    -0.01732,
                    1.14605,
                    0.01822
                ],
                [
                    0.01817,
                    0.01737,
                    1.14606
                ]
            ],
            [
                [
                    1.14608,
                    -0.01824,
                    -0.01737
                ],
                [
                    -0.01739,
                    1.14605,
                    -0.01816
                ],
                [
                    -0.01817,
                    -0.01737,
                    1.14606
                ]
            ],
            [
                [
                    1.14608,
                    0.01824,
                    0.01737
                ],
                [
                    0.01732,
                    1.14605,
                    -0.01822
                ],
                [
                    0.01825,
                    -0.01735,
                    1.14598
                ]
            ],
            [
                [
                    1.14602,
                    0.01815,
                    -0.01738
                ],
                [
                    0.01739,
                    1.14605,
                    0.01816
                ],
                [
                    -0.01825,
                    0.01735,
                    1.14598
                ]
            ],
            [
                [
                    2.40622,
                    0.17863,
                    -0.46361
                ],
                [
                    0.46363,
                    2.40555,
                    0.17847
                ],
                [
                    -0.17838,
                    0.46344,
                    2.40575
                ]
            ],
            [
                [
                    2.40567,
                    0.1787,
                    0.46343
                ],
                [
                    0.46343,
                    2.40643,
                    -0.17906
                ],
                [
                    0.17838,
                    -0.46344,
                    2.40575
                ]
            ],
            [
                [
                    2.40567,
                    -0.1787,
                    -0.46343
                ],
                [
                    -0.46363,
                    2.40555,
                    -0.17847
                ],
                [
                    -0.17909,
                    -0.46365,
                    2.40617
                ]
            ],
            [
                [
                    2.40622,
                    -0.17863,
                    0.46361
                ],
                [
                    -0.46343,
                    2.40643,
                    0.17906
                ],
                [
                    0.17909,
                    0.46365,
                    2.40617
                ]
            ],
            [
                [
                    -4.68986,
                    0.17646,
                    -2e-05
                ],
                [
                    -0.85391,
                    -1.05074,
                    -0.00028
                ],
                [
                    -0.0,
                    -0.0,
                    -1.36321
                ]
            ],
            [
                [
                    -4.68986,
                    -0.17646,
                    2e-05
                ],
                [
                    0.85391,
                    -1.05074,
                    0.00028
                ],
                [
                    -0.0,
                    0.0,
                    -1.36357
                ]
            ],
            [
                [
                    -1.05073,
                    0.00012,
                    -0.85396
                ],
                [
                    0.0,
                    -1.36378,
                    -0.0
                ],
                [
                    0.17639,
                    -0.00021,
                    -4.68982
                ]
            ],
            [
                [
                    -1.36369,
                    0.0,
                    -0.0
                ],
                [
                    -0.00011,
                    -4.68996,
                    0.17624
                ],
                [
                    -0.00035,
                    -0.85395,
                    -1.05076
                ]
            ],
            [
                [
                    -1.3631,
                    -0.0,
                    -0.0
                ],
                [
                    0.00011,
                    -4.68996,
                    -0.17624
                ],
                [
                    0.00035,
                    0.85395,
                    -1.05076
                ]
            ],
            [
                [
                    -1.05073,
                    -0.00012,
                    0.85396
                ],
                [
                    -0.0,
                    -1.36297,
                    0.0
                ],
                [
                    -0.17639,
                    0.00021,
                    -4.68982
                ]
            ]
        ]
    },
    "band_gap": 1.5616999999999999,
    "is_direct": false,
    "formula": "K2Pb2O3"
}