{
    "mp_id": "mp-22169",
    "nelements": 3,
    "nsites": 12,
    "elements": [
        "Mo",
        "O",
        "Pb"
    ],
    "structure": {
        "@module": "pymatgen.core.structure",
        "@class": "Structure",
        "charge": null,
        "lattice": {
            "matrix": [
                [
                    -2.70875041,
                    2.70875043,
                    5.9647701
                ],
                [
                    2.70875041,
                    -2.70875043,
                    5.9647701
                ],
                [
                    2.70875043,
                    2.70875041,
                    -5.9647701
                ]
            ],
            "a": 7.088944915962767,
            "b": 7.088944915962767,
            "c": 7.088944915962767,
            "alpha": 135.07122598895697,
            "beta": 135.07122598895697,
            "gamma": 65.4195505163195,
            "volume": 175.0619186635059
        },
        "sites": [
            {
                "species": [
                    {
                        "element": "Mo",
                        "occu": 1
                    }
                ],
                "abc": [
                    0.75,
                    0.25,
                    0.5
                ],
                "xyz": [
                    1.0000000161269895e-08,
                    2.7087504199999994,
                    2.98238505
                ],
                "label": "Mo",
                "properties": {}
            },
            {
                "species": [
                    {
                        "element": "Mo",
                        "occu": 1
                    }
                ],
                "abc": [
                    0.0,
                    0.0,
                    0.0
                ],
                "xyz": [
                    0.0,
                    0.0,
                    0.0
                ],
                "label": "Mo",
                "properties": {}
            },
            {
                "species": [
                    {
                        "element": "Pb",
                        "occu": 1
                    }
                ],
                "abc": [
                    0.25,
                    0.75,
                    0.5
                ],
                "xyz": [
                    2.7087504199999994,
                    -9.999999717180685e-09,
                    2.98238505
                ],
                "label": "Pb",
                "properties": {}
            },
            {
                "species": [
                    {
                        "element": "Pb",
                        "occu": 1
                    }
                ],
                "abc": [
                    0.5,
                    0.5,
                    0.0
                ],
                "xyz": [
                    0.0,
                    0.0,
                    5.9647701
                ],
                "label": "Pb",
                "properties": {}
            },
            {
                "species": [
                    {
                        "element": "O",
                        "occu": 1
                    }
                ],
                "abc": [
                    0.93817078,
                    0.31925915,
                    0.09147955
                ],
                "xyz": [
                    -1.4286818611175618,
                    1.9242724124636166,
                    6.954625964707638
                ],
                "label": "O",
                "properties": {}
            },
            {
                "species": [
                    {
                        "element": "O",
                        "occu": 1
                    }
                ],
                "abc": [
                    0.59669123,
                    0.18817078,
                    0.11891164
                ],
                "xyz": [
                    -0.7844779804488794,
                    1.4286818982050657,
                    3.9722408550599377
                ],
                "label": "O",
                "properties": {}
            },
            {
                "species": [
                    {
                        "element": "O",
                        "occu": 1
                    }
                ],
                "abc": [
                    0.06925915,
                    0.47777959,
                    0.88108836
                ],
                "xyz": [
                    3.493228383361375,
                    1.2800685388824384,
                    -1.9925291852923621
                ],
                "label": "O",
                "properties": {}
            },
            {
                "species": [
                    {
                        "element": "O",
                        "occu": 1
                    }
                ],
                "abc": [
                    0.22777959,
                    0.84669123,
                    0.90852045
                ],
                "xyz": [
                    4.137432318205065,
                    0.7844779704488793,
                    0.9898558050599364
                ],
                "label": "O",
                "properties": {}
            },
            {
                "species": [
                    {
                        "element": "O",
                        "occu": 1
                    }
                ],
                "abc": [
                    0.52222041,
                    0.40330877,
                    0.59147955
                ],
                "xyz": [
                    1.2800685317949339,
                    1.9242724295511204,
                    1.9925292449400627
                ],
                "label": "O",
                "properties": {}
            },
            {
                "species": [
                    {
                        "element": "O",
                        "occu": 1
                    }
                ],
                "abc": [
                    0.68074085,
                    0.77222041,
                    0.61891164
                ],
                "xyz": [
                    1.9242724666386244,
                    1.4286818611175613,
                    4.974914235292362
                ],
                "label": "O",
                "properties": {}
            },
            {
                "species": [
                    {
                        "element": "O",
                        "occu": 1
                    }
                ],
                "abc": [
                    0.15330877,
                    0.06182922,
                    0.38108836
                ],
                "xyz": [
                    0.7844779904488793,
                    1.2800685217949341,
                    -0.9898558050599369
                ],
                "label": "O",
                "properties": {}
            },
            {
                "species": [
                    {
                        "element": "O",
                        "occu": 1
                    }
                ],
                "abc": [
                    0.81182922,
                    0.93074085,
                    0.40852045
                ],
                "xyz": [
                    1.4286818711175615,
                    0.784478007536384,
                    7.957299285292361
                ],
                "label": "O",
                "properties": {}
            }
        ]
    },
    "spacegroup": {
        "source": "spglib",
        "symbol": "I4_1/a",
        "number": 88,
        "point_group": "4/m",
        "crystal_system": "tetragonal",
        "hall": "I 4bw -1bw"
    },
    "dielectric": {
        "epsilon_ionic": [
            [
                18.28105326,
                0.00032827,
                0.0
            ],
            [
                0.00032827,
                18.28094433,
                -0.0
            ],
            [
                0.0,
                -0.0,
                17.60765866
            ]
        ],
        "epsilon_ionic_avg": 18.056552083333333,
        "epsilon_ionic_eig": [
            18.281331552613175,
            18.280666037386826,
            17.60765866
        ],
        "epsilon_electronic": [
            [
                5.85011968,
                3.8e-07,
                0.0
            ],
            [
                -3.8e-07,
                5.85011968,
                -0.0
            ],
            [
                0.0,
                0.0,
                5.30123247
            ]
        ],
        "epsilon_electronic_avg": 5.667157276666667,
        "epsilon_electronic_eig": [
            5.85011968,
            5.85011968,
            5.30123247
        ]
    },
    "phonon": {
        "lowest_freq": -0.02132184434374637,
        "frequency": [
            -0.02132184434374637,
            -0.014008529347475538,
            -0.014008529347475538,
            1.929869465168259,
            2.0222688257690353,
            2.0222688257690353,
            2.3188255963894195,
            2.4357444645854502,
            2.8355608612389904,
            2.8355608612389904,
            3.1192895522685635,
            3.1192895522685635,
            3.298265999026282,
            3.298265999026282,
            5.374329649557056,
            6.064908693531579,
            6.064908693531579,
            6.209338260632717,
            7.002417388542135,
            8.387977014098551,
            8.387977014098551,
            9.165368083656887,
            9.213859082065605,
            10.136975935821212,
            10.228637827787278,
            10.228637827787278,
            10.848329080515077,
            11.36311673218838,
            22.142483127220828,
            22.142483127220828,
            22.1994587138922,
            22.257678453100677,
            22.257678453100677,
            22.71505121593421,
            25.19216710870261,
            25.23442182081033
        ]
    },
    "born_effective_charge": {
        "avg_abs_trace": 2.974794444444445,
        "tensors": [
            [
                [
                    5.04932,
                    -0.18126,
                    -0.00057
                ],
                [
                    0.18105,
                    5.04924,
                    -0.00094
                ],
                [
                    0.0,
                    0.0,
                    4.61548
                ]
            ],
            [
                [
                    5.04932,
                    -0.18126,
                    0.00057
                ],
                [
                    0.18105,
                    5.04924,
                    0.00094
                ],
                [
                    0.0,
                    0.0,
                    4.61548
                ]
            ],
            [
                [
                    4.0361,
                    0.17774,
                    7e-05
                ],
                [
                    -0.17769,
                    4.03603,
                    -5e-05
                ],
                [
                    0.0,
                    0.0,
                    3.98699
                ]
            ],
            [
                [
                    4.0361,
                    0.17774,
                    -7e-05
                ],
                [
                    -0.17769,
                    4.03603,
                    5e-05
                ],
                [
                    0.0,
                    0.0,
                    3.98699
                ]
            ],
            [
                [
                    -2.70069,
                    1.17632,
                    -1.28313
                ],
                [
                    1.17424,
                    -1.84189,
                    0.42809
                ],
                [
                    -1.12309,
                    0.40053,
                    -2.15061
                ]
            ],
            [
                [
                    -1.84206,
                    -1.17424,
                    0.42875
                ],
                [
                    -1.17615,
                    -2.70061,
                    1.28346
                ],
                [
                    0.40053,
                    1.12309,
                    -2.15061
                ]
            ],
            [
                [
                    -1.84227,
                    -1.17456,
                    -0.42808
                ],
                [
                    -1.17636,
                    -2.70051,
                    -1.28284
                ],
                [
                    -0.40053,
                    -1.12309,
                    -2.15061
                ]
            ],
            [
                [
                    -2.7004,
                    1.176,
                    1.28314
                ],
                [
                    1.1749,
                    -1.84225,
                    -0.42887
                ],
                [
                    1.12309,
                    -0.40053,
                    -2.15061
                ]
            ],
            [
                [
                    -2.70069,
                    1.17632,
                    1.28313
                ],
                [
                    1.17424,
                    -1.84189,
                    -0.42809
                ],
                [
                    1.12306,
                    -0.40055,
                    -2.15062
                ]
            ],
            [
                [
                    -1.84206,
                    -1.17424,
                    -0.42875
                ],
                [
                    -1.17615,
                    -2.70061,
                    -1.28346
                ],
                [
                    -0.40055,
                    -1.12306,
                    -2.15062
                ]
            ],
            [
                [
                    -1.84227,
                    -1.17456,
                    0.42808
                ],
                [
                    -1.17636,
                    -2.70051,
                    1.28284
                ],
                [
                    0.40055,
                    1.12306,
                    -2.15062
                ]
            ],
            [
                [
                    -2.7004,
                    1.176,
                    -1.28314
                ],
                [
                    1.1749,
                    -1.84225,
                    0.42887
                ],
                [
                    -1.12306,
                    0.40055,
                    -2.15062
                ]
            ]
        ]
    },
    "band_gap": 2.3973999999999998,
    "is_direct": false,
    "formula": "MoPbO4"
}