{
    "mp_id": "mp-28232",
    "nelements": 3,
    "nsites": 16,
    "elements": [
        "Mg",
        "O",
        "Ti"
    ],
    "structure": {
        "@module": "pymatgen.core.structure",
        "@class": "Structure",
        "charge": null,
        "lattice": {
            "matrix": [
                [
                    1.91059405,
                    -4.89451961,
                    0.0
                ],
                [
                    1.91059405,
                    4.89451961,
                    0.0
                ],
                [
                    0.0,
                    0.0,
                    10.00416082
                ]
            ],
            "a": 5.254207060686698,
            "b": 5.254207060686698,
            "c": 10.00416082,
            "alpha": 90.0,
            "beta": 90.0,
            "gamma": 137.3532525644467,
            "volume": 187.10662020701807
        },
        "sites": [
            {
                "species": [
                    {
                        "element": "Mg",
                        "occu": 1
                    }
                ],
                "abc": [
                    0.80242653,
                    0.19757347,
                    0.25
                ],
                "xyz": [
                    1.9105940499999998,
                    -2.9604651633385064,
                    2.501040205
                ],
                "label": "Mg",
                "properties": {}
            },
            {
                "species": [
                    {
                        "element": "Mg",
                        "occu": 1
                    }
                ],
                "abc": [
                    0.19757347,
                    0.80242653,
                    0.75
                ],
                "xyz": [
                    1.9105940499999998,
                    2.9604651633385064,
                    7.503120614999999
                ],
                "label": "Mg",
                "properties": {}
            },
            {
                "species": [
                    {
                        "element": "Ti",
                        "occu": 1
                    }
                ],
                "abc": [
                    0.13566294,
                    0.86433706,
                    0.06468088
                ],
                "xyz": [
                    1.9105940499999998,
                    3.5665097696394934,
                    0.6470779254991215
                ],
                "label": "Ti",
                "properties": {}
            },
            {
                "species": [
                    {
                        "element": "Ti",
                        "occu": 1
                    }
                ],
                "abc": [
                    0.86433706,
                    0.13566294,
                    0.93531912
                ],
                "xyz": [
                    1.9105940499999998,
                    -3.5665097696394934,
                    9.357082894500877
                ],
                "label": "Ti",
                "properties": {}
            },
            {
                "species": [
                    {
                        "element": "Ti",
                        "occu": 1
                    }
                ],
                "abc": [
                    0.13566294,
                    0.86433706,
                    0.43531912
                ],
                "xyz": [
                    1.9105940499999998,
                    3.5665097696394934,
                    4.355002484500878
                ],
                "label": "Ti",
                "properties": {}
            },
            {
                "species": [
                    {
                        "element": "Ti",
                        "occu": 1
                    }
                ],
                "abc": [
                    0.86433706,
                    0.13566294,
                    0.56468088
                ],
                "xyz": [
                    1.9105940499999998,
                    -3.5665097696394934,
                    5.649158335499122
                ],
                "label": "Ti",
                "properties": {}
            },
            {
                "species": [
                    {
                        "element": "O",
                        "occu": 1
                    }
                ],
                "abc": [
                    0.6875192,
                    0.3124808,
                    0.06200227
                ],
                "xyz": [
                    1.9105940500000003,
                    -1.8356328033030238,
                    0.6202806802850613
                ],
                "label": "O",
                "properties": {}
            },
            {
                "species": [
                    {
                        "element": "O",
                        "occu": 1
                    }
                ],
                "abc": [
                    0.3124808,
                    0.6875192,
                    0.93799773
                ],
                "xyz": [
                    1.9105940500000003,
                    1.8356328033030238,
                    9.383880139714938
                ],
                "label": "O",
                "properties": {}
            },
            {
                "species": [
                    {
                        "element": "O",
                        "occu": 1
                    }
                ],
                "abc": [
                    0.3124808,
                    0.6875192,
                    0.56200227
                ],
                "xyz": [
                    1.9105940500000003,
                    1.8356328033030238,
                    5.622361090285061
                ],
                "label": "O",
                "properties": {}
            },
            {
                "species": [
                    {
                        "element": "O",
                        "occu": 1
                    }
                ],
                "abc": [
                    0.6875192,
                    0.3124808,
                    0.43799773
                ],
                "xyz": [
                    1.9105940500000003,
                    -1.8356328033030238,
                    4.381799729714938
                ],
                "label": "O",
                "properties": {}
            },
            {
                "species": [
                    {
                        "element": "O",
                        "occu": 1
                    }
                ],
                "abc": [
                    0.95195502,
                    0.04804498,
                    0.11414205
                ],
                "xyz": [
                    1.9105940499999998,
                    -4.424205416455884,
                    1.1418954245244808
                ],
                "label": "O",
                "properties": {}
            },
            {
                "species": [
                    {
                        "element": "O",
                        "occu": 1
                    }
                ],
                "abc": [
                    0.04804498,
                    0.95195502,
                    0.88585795
                ],
                "xyz": [
                    1.9105940499999998,
                    4.424205416455884,
                    8.862265395475518
                ],
                "label": "O",
                "properties": {}
            },
            {
                "species": [
                    {
                        "element": "O",
                        "occu": 1
                    }
                ],
                "abc": [
                    0.21903354,
                    0.78096646,
                    0.25
                ],
                "xyz": [
                    1.9105940500000003,
                    2.750391696444561,
                    2.501040205
                ],
                "label": "O",
                "properties": {}
            },
            {
                "species": [
                    {
                        "element": "O",
                        "occu": 1
                    }
                ],
                "abc": [
                    0.78096646,
                    0.21903354,
                    0.75
                ],
                "xyz": [
                    1.9105940500000003,
                    -2.750391696444561,
                    7.503120614999999
                ],
                "label": "O",
                "properties": {}
            },
            {
                "species": [
                    {
                        "element": "O",
                        "occu": 1
                    }
                ],
                "abc": [
                    0.95195502,
                    0.04804498,
                    0.38585795
                ],
                "xyz": [
                    1.9105940499999998,
                    -4.424205416455884,
                    3.860184985475519
                ],
                "label": "O",
                "properties": {}
            },
            {
                "species": [
                    {
                        "element": "O",
                        "occu": 1
                    }
                ],
                "abc": [
                    0.04804498,
                    0.95195502,
                    0.61414205
                ],
                "xyz": [
                    1.9105940499999998,
                    4.424205416455884,
                    6.143975834524481
                ],
                "label": "O",
                "properties": {}
            }
        ]
    },
    "spacegroup": {
        "source": "spglib",
        "symbol": "Cmcm",
        "number": 63,
        "point_group": "mmm",
        "crystal_system": "orthorhombic",
        "hall": "-C 2c 2"
    },
    "dielectric": {
        "epsilon_ionic": [
            [
                12.41275996,
                -3e-08,
                5e-08
            ],
            [
                -3e-08,
                11.8224725,
                -2e-08
            ],
            [
                5e-08,
                -2e-08,
                13.23808942
            ]
        ],
        "epsilon_ionic_avg": 12.491107293333334,
        "epsilon_ionic_eig": [
            12.41275996,
            13.23808942,
            11.822472499999998
        ],
        "epsilon_electronic": [
            [
                5.24130675,
                0.0,
                0.0
            ],
            [
                0.0,
                5.22315799,
                0.0
            ],
            [
                0.0,
                0.0,
                4.86143956
            ]
        ],
        "epsilon_electronic_avg": 5.108634766666667,
        "epsilon_electronic_eig": [
            5.24130675,
            5.22315799,
            4.86143956
        ]
    },
    "phonon": {
        "lowest_freq": -0.05966153921679796,
        "frequency": [
            -0.05966153921679796,
            -0.027873992504923253,
            -0.026361948866542275,
            3.6611677383040684,
            3.7076957421674357,
            4.626016799291496,
            5.00331641954475,
            5.487732306234188,
            6.281529863580593,
            6.372971023478296,
            6.438054604401323,
            6.537957341643007,
            7.610772151355518,
            7.845269149801253,
            7.971933300910534,
            8.232662115264505,
            8.515017208800124,
            8.664232325936412,
            8.727161944568232,
            9.400752811627816,
            9.701647452497088,
            9.731316059268421,
            9.798051332678757,
            10.519472241043907,
            10.861597598330048,
            10.892749792686494,
            11.461561689037964,
            12.222860302364985,
            12.957767849572017,
            13.012095010692162,
            13.029443532408443,
            13.51364029167817,
            13.664120614502199,
            14.134386654996616,
            14.329999414761653,
            14.708050062448004,
            15.259225393217472,
            15.460752461057579,
            16.508959736402826,
            17.295964552475557,
            18.92262901241752,
            19.257156103580456,
            19.643527077383965,
            19.69639030315493,
            21.246736652099745,
            22.253639189241397,
            22.708268343509527,
            23.121467569163457
        ]
    },
    "born_effective_charge": {
        "avg_abs_trace": 3.1798045833333335,
        "tensors": [
            [
                [
                    1.7826,
                    0.00013,
                    0.0
                ],
                [
                    0.0,
                    2.31565,
                    -0.0
                ],
                [
                    -0.0,
                    1e-05,
                    2.48242
                ]
            ],
            [
                [
                    1.7826,
                    -0.00013,
                    0.0
                ],
                [
                    0.0,
                    2.31569,
                    -0.0
                ],
                [
                    -0.0,
                    -1e-05,
                    2.48242
                ]
            ],
            [
                [
                    5.72833,
                    0.00088,
                    -0.00013
                ],
                [
                    0.0,
                    5.47536,
                    -0.38592
                ],
                [
                    -0.0,
                    -1.07121,
                    4.58458
                ]
            ],
            [
                [
                    5.72833,
                    -0.00088,
                    0.00013
                ],
                [
                    0.0,
                    5.47554,
                    -0.38576
                ],
                [
                    -0.0,
                    -1.07112,
                    4.58482
                ]
            ],
            [
                [
                    5.72833,
                    0.00088,
                    0.00013
                ],
                [
                    0.0,
                    5.47536,
                    0.38592
                ],
                [
                    -0.0,
                    1.07112,
                    4.58482
                ]
            ],
            [
                [
                    5.72833,
                    -0.00088,
                    -0.00013
                ],
                [
                    0.0,
                    5.47554,
                    0.38576
                ],
                [
                    -0.0,
                    1.07121,
                    4.58458
                ]
            ],
            [
                [
                    -4.793,
                    -0.0012,
                    6e-05
                ],
                [
                    0.0,
                    -2.23813,
                    -0.54401
                ],
                [
                    0.0,
                    -0.28436,
                    -1.47643
                ]
            ],
            [
                [
                    -4.793,
                    0.0012,
                    -6e-05
                ],
                [
                    0.0,
                    -2.23814,
                    -0.54384
                ],
                [
                    -0.0,
                    -0.28433,
                    -1.47659
                ]
            ],
            [
                [
                    -4.793,
                    0.0012,
                    6e-05
                ],
                [
                    0.0,
                    -2.23814,
                    0.54384
                ],
                [
                    -0.0,
                    0.28436,
                    -1.47643
                ]
            ],
            [
                [
                    -4.793,
                    -0.0012,
                    -6e-05
                ],
                [
                    0.0,
                    -2.23813,
                    0.54401
                ],
                [
                    0.0,
                    0.28433,
                    -1.47659
                ]
            ],
            [
                [
                    -0.9119,
                    0.00011,
                    -0.00011
                ],
                [
                    0.0,
                    -3.58433,
                    0.3219
                ],
                [
                    -0.0,
                    0.39276,
                    -2.11592
                ]
            ],
            [
                [
                    -0.9119,
                    -0.00011,
                    0.00011
                ],
                [
                    0.0,
                    -3.5844,
                    0.3214
                ],
                [
                    -0.0,
                    0.39255,
                    -2.11543
                ]
            ],
            [
                [
                    -1.82948,
                    0.00031,
                    0.0
                ],
                [
                    0.0,
                    -1.62161,
                    -0.0
                ],
                [
                    -0.0,
                    0.00015,
                    -4.46745
                ]
            ],
            [
                [
                    -1.82948,
                    -0.00031,
                    0.0
                ],
                [
                    0.0,
                    -1.62151,
                    -0.0
                ],
                [
                    -0.0,
                    -0.00015,
                    -4.46745
                ]
            ],
            [
                [
                    -0.9119,
                    0.00011,
                    0.00011
                ],
                [
                    0.0,
                    -3.58433,
                    -0.3219
                ],
                [
                    -0.0,
                    -0.39255,
                    -2.11543
                ]
            ],
            [
                [
                    -0.9119,
                    -0.00011,
                    -0.00011
                ],
                [
                    0.0,
                    -3.5844,
                    -0.3214
                ],
                [
                    -0.0,
                    -0.39276,
                    -2.11592
                ]
            ]
        ]
    },
    "band_gap": 2.9328,
    "is_direct": false,
    "formula": "MgTi2O5"
}