{
    "mp_id": "mp-21138",
    "nelements": 3,
    "nsites": 16,
    "elements": [
        "Mo",
        "O",
        "Pb"
    ],
    "structure": {
        "@module": "pymatgen.core.structure",
        "@class": "Structure",
        "charge": null,
        "lattice": {
            "matrix": [
                [
                    7.05691692,
                    -2.88410054,
                    0.00061741
                ],
                [
                    7.05691692,
                    2.88410054,
                    0.00061741
                ],
                [
                    -2.82938787,
                    0.0,
                    6.71462874
                ]
            ],
            "a": 7.623523642109709,
            "b": 7.623523642109709,
            "c": 7.2864034224668845,
            "alpha": 111.06184218863167,
            "beta": 111.06184218863167,
            "gamma": 44.458814546254814,
            "volume": 273.33384561544455
        },
        "sites": [
            {
                "species": [
                    {
                        "element": "Mo",
                        "occu": 1
                    }
                ],
                "abc": [
                    0.83075584,
                    0.83075584,
                    0.33996346
                ],
                "xyz": [
                    10.763261397402395,
                    0.0,
                    2.283754252992189
                ],
                "label": "Mo",
                "properties": {}
            },
            {
                "species": [
                    {
                        "element": "Mo",
                        "occu": 1
                    }
                ],
                "abc": [
                    0.16924416,
                    0.16924416,
                    0.66003654
                ],
                "xyz": [
                    0.5211845725976045,
                    0.0,
                    4.432109307007811
                ],
                "label": "Mo",
                "properties": {}
            },
            {
                "species": [
                    {
                        "element": "Pb",
                        "occu": 1
                    }
                ],
                "abc": [
                    0.51095561,
                    0.51095561,
                    0.2561018
                ],
                "xyz": [
                    6.486931252750676,
                    0.0,
                    1.7202594448520723
                ],
                "label": "Pb",
                "properties": {}
            },
            {
                "species": [
                    {
                        "element": "Pb",
                        "occu": 1
                    }
                ],
                "abc": [
                    0.48904439,
                    0.48904439,
                    0.7438982
                ],
                "xyz": [
                    4.797514717249324,
                    0.0,
                    4.995604115147928
                ],
                "label": "Pb",
                "properties": {}
            },
            {
                "species": [
                    {
                        "element": "Pb",
                        "occu": 1
                    }
                ],
                "abc": [
                    0.13703708,
                    0.13703708,
                    0.11071467
                ],
                "xyz": [
                    1.6208638327097342,
                    0.0,
                    0.7435771212487414
                ],
                "label": "Pb",
                "properties": {}
            },
            {
                "species": [
                    {
                        "element": "Pb",
                        "occu": 1
                    }
                ],
                "abc": [
                    0.86296292,
                    0.86296292,
                    0.88928533
                ],
                "xyz": [
                    9.663582137290264,
                    0.0,
                    5.972286438751258
                ],
                "label": "Pb",
                "properties": {}
            },
            {
                "species": [
                    {
                        "element": "O",
                        "occu": 1
                    }
                ],
                "abc": [
                    0.25334007,
                    0.74665993,
                    0.0
                ],
                "xyz": [
                    7.05691692,
                    1.4227840746187244,
                    0.0006174099999999999
                ],
                "label": "O",
                "properties": {}
            },
            {
                "species": [
                    {
                        "element": "O",
                        "occu": 1
                    }
                ],
                "abc": [
                    0.74665993,
                    0.25334007,
                    0.0
                ],
                "xyz": [
                    7.05691692,
                    -1.4227840746187244,
                    0.0006174099999999999
                ],
                "label": "O",
                "properties": {}
            },
            {
                "species": [
                    {
                        "element": "O",
                        "occu": 1
                    }
                ],
                "abc": [
                    0.69874351,
                    0.69874351,
                    0.30853981
                ],
                "xyz": [
                    8.988971001092272,
                    0.0,
                    2.0725930981211578
                ],
                "label": "O",
                "properties": {}
            },
            {
                "species": [
                    {
                        "element": "O",
                        "occu": 1
                    }
                ],
                "abc": [
                    0.30125649,
                    0.30125649,
                    0.69146019
                ],
                "xyz": [
                    2.295474968907726,
                    0.0,
                    4.643270461878842
                ],
                "label": "O",
                "properties": {}
            },
            {
                "species": [
                    {
                        "element": "O",
                        "occu": 1
                    }
                ],
                "abc": [
                    0.39287261,
                    0.90033564,
                    0.78590622
                ],
                "xyz": [
                    6.902429654683038,
                    1.4635743988530359,
                    5.277866931462396
                ],
                "label": "O",
                "properties": {}
            },
            {
                "species": [
                    {
                        "element": "O",
                        "occu": 1
                    }
                ],
                "abc": [
                    0.09966436,
                    0.60712739,
                    0.21409378
                ],
                "xyz": [
                    4.382016315316962,
                    1.4635743988530363,
                    1.4379966285376047
                ],
                "label": "O",
                "properties": {}
            },
            {
                "species": [
                    {
                        "element": "O",
                        "occu": 1
                    }
                ],
                "abc": [
                    0.91261917,
                    0.91261917,
                    0.60181623
                ],
                "xyz": [
                    11.177783783447584,
                    0.0,
                    4.042099474559949
                ],
                "label": "O",
                "properties": {}
            },
            {
                "species": [
                    {
                        "element": "O",
                        "occu": 1
                    }
                ],
                "abc": [
                    0.08738083,
                    0.08738083,
                    0.39818377
                ],
                "xyz": [
                    0.10666218655241733,
                    0.0,
                    2.6737640854400504
                ],
                "label": "O",
                "properties": {}
            },
            {
                "species": [
                    {
                        "element": "O",
                        "occu": 1
                    }
                ],
                "abc": [
                    0.90033564,
                    0.39287261,
                    0.78590622
                ],
                "xyz": [
                    6.902429654683038,
                    -1.4635743988530359,
                    5.277866931462396
                ],
                "label": "O",
                "properties": {}
            },
            {
                "species": [
                    {
                        "element": "O",
                        "occu": 1
                    }
                ],
                "abc": [
                    0.60712739,
                    0.09966436,
                    0.21409378
                ],
                "xyz": [
                    4.382016315316962,
                    -1.4635743988530363,
                    1.4379966285376047
                ],
                "label": "O",
                "properties": {}
            }
        ]
    },
    "spacegroup": {
        "source": "spglib",
        "symbol": "C2/m",
        "number": 12,
        "point_group": "2/m",
        "crystal_system": "monoclinic",
        "hall": "-C 2y"
    },
    "dielectric": {
        "epsilon_ionic": [
            [
                12.34132125,
                -8e-08,
                -3.14977187
            ],
            [
                -8e-08,
                28.22638713,
                -2e-07
            ],
            [
                -3.14977187,
                -2e-07,
                9.86882357
            ]
        ],
        "epsilon_ionic_avg": 16.812177316666663,
        "epsilon_ionic_eig": [
            7.721380044041673,
            14.488764775958325,
            28.226387129999996
        ],
        "epsilon_electronic": [
            [
                4.86637592,
                0.0,
                -0.29553604
            ],
            [
                0.0,
                4.58007821,
                0.0
            ],
            [
                -0.29554646,
                0.0,
                5.00339425
            ]
        ],
        "epsilon_electronic_avg": 4.816616126666667,
        "epsilon_electronic_eig": [
            4.631507208230095,
            5.238262961769905,
            4.58007821
        ]
    },
    "phonon": {
        "lowest_freq": -0.054991461433135276,
        "frequency": [
            -0.054991461433135276,
            -0.04810802147021515,
            -0.024639068552603408,
            0.8535638984237724,
            1.228159250632598,
            1.2333770504614656,
            1.3073585323247037,
            1.8280262287691058,
            2.0406182396044805,
            2.085187050373882,
            2.157749667613207,
            2.3930981364375783,
            2.4029446272386816,
            2.5408795448569896,
            2.724547872626719,
            2.8441119677655067,
            3.065184171862691,
            3.0769212449465257,
            3.1531238075045285,
            3.1832673872548938,
            4.094975887600982,
            4.134429022617747,
            4.160165587725708,
            4.51930716261153,
            7.648361807674072,
            8.145465834570889,
            8.440653305031194,
            8.561708045461193,
            8.573144144728223,
            8.89383679884244,
            9.055587423887788,
            9.21830559457839,
            9.478263123558555,
            9.937645517106635,
            10.092006623236388,
            10.369823911614835,
            10.97637377161864,
            11.920497030728576,
            12.494558783486836,
            14.763343603430844,
            22.96409298125724,
            23.449826474134476,
            23.520763384863447,
            23.629602135420924,
            23.726970020923517,
            23.779421007958025,
            26.22758741993877,
            26.23275030453679
        ]
    },
    "born_effective_charge": {
        "avg_abs_trace": 2.6063914583333334,
        "tensors": [
            [
                [
                    3.89909,
                    0.0,
                    -0.70856
                ],
                [
                    5e-05,
                    3.24926,
                    -0.00016
                ],
                [
                    0.60748,
                    0.0,
                    4.43276
                ]
            ],
            [
                [
                    3.89887,
                    0.0,
                    -0.70872
                ],
                [
                    -5e-05,
                    3.24926,
                    0.00016
                ],
                [
                    0.60652,
                    0.0,
                    4.43213
                ]
            ],
            [
                [
                    3.70662,
                    0.0,
                    -0.27925
                ],
                [
                    0.0003,
                    3.67745,
                    2e-05
                ],
                [
                    -0.69048,
                    0.0,
                    2.99849
                ]
            ],
            [
                [
                    3.70666,
                    0.0,
                    -0.27898
                ],
                [
                    -0.0003,
                    3.67745,
                    -2e-05
                ],
                [
                    -0.68999,
                    0.0,
                    2.99742
                ]
            ],
            [
                [
                    3.28821,
                    0.0,
                    -0.09522
                ],
                [
                    -0.0002,
                    2.78796,
                    3e-05
                ],
                [
                    -0.36232,
                    0.0,
                    3.23781
                ]
            ],
            [
                [
                    3.28822,
                    0.0,
                    -0.09514
                ],
                [
                    0.0002,
                    2.78796,
                    -3e-05
                ],
                [
                    -0.3627,
                    0.0,
                    3.23778
                ]
            ],
            [
                [
                    -2.17087,
                    0.00026,
                    0.00187
                ],
                [
                    -0.0,
                    -3.13462,
                    0.0
                ],
                [
                    -0.0334,
                    -0.00058,
                    -2.78808
                ]
            ],
            [
                [
                    -2.17087,
                    -0.00026,
                    0.00187
                ],
                [
                    -0.0,
                    -3.13453,
                    0.0
                ],
                [
                    -0.0334,
                    0.00058,
                    -2.78808
                ]
            ],
            [
                [
                    -4.21014,
                    0.0,
                    -0.44756
                ],
                [
                    0.00039,
                    -0.90274,
                    -9e-05
                ],
                [
                    -0.60047,
                    0.0,
                    -0.67695
                ]
            ],
            [
                [
                    -4.20818,
                    0.0,
                    -0.4473
                ],
                [
                    -0.00039,
                    -0.90274,
                    9e-05
                ],
                [
                    -0.59964,
                    0.0,
                    -0.67652
                ]
            ],
            [
                [
                    -1.77823,
                    -1.15702,
                    0.71044
                ],
                [
                    -0.99461,
                    -2.35341,
                    0.66427
                ],
                [
                    0.58282,
                    0.85685,
                    -1.43859
                ]
            ],
            [
                [
                    -1.77813,
                    1.15705,
                    0.71053
                ],
                [
                    0.99461,
                    -2.35341,
                    -0.66427
                ],
                [
                    0.58228,
                    -0.85624,
                    -1.43848
                ]
            ],
            [
                [
                    -0.95771,
                    0.0,
                    0.10694
                ],
                [
                    -7e-05,
                    -0.97148,
                    -0.00022
                ],
                [
                    -0.08609,
                    0.0,
                    -4.32641
                ]
            ],
            [
                [
                    -0.95717,
                    0.0,
                    0.10811
                ],
                [
                    7e-05,
                    -0.97148,
                    0.00022
                ],
                [
                    -0.08572,
                    0.0,
                    -4.3262
                ]
            ],
            [
                [
                    -1.77823,
                    1.15702,
                    0.71044
                ],
                [
                    0.99463,
                    -2.35247,
                    -0.66428
                ],
                [
                    0.58282,
                    -0.85685,
                    -1.43859
                ]
            ],
            [
                [
                    -1.77813,
                    -1.15705,
                    0.71053
                ],
                [
                    -0.99463,
                    -2.35247,
                    0.66428
                ],
                [
                    0.58228,
                    0.85624,
                    -1.43848
                ]
            ]
        ]
    },
    "band_gap": 2.5584999999999996,
    "is_direct": false,
    "formula": "MoPb2O5"
}