{
    "mp_id": "mp-29920",
    "nelements": 3,
    "nsites": 20,
    "elements": [
        "Au",
        "O",
        "Rb"
    ],
    "structure": {
        "@module": "pymatgen.core.structure",
        "@class": "Structure",
        "charge": null,
        "lattice": {
            "matrix": [
                [
                    7.31943797,
                    0.0,
                    0.0
                ],
                [
                    0.0,
                    14.17465667,
                    0.0
                ],
                [
                    0.0,
                    0.0,
                    5.64131616
                ]
            ],
            "a": 7.31943797,
            "b": 14.17465667,
            "c": 5.64131616,
            "alpha": 90.0,
            "beta": 90.0,
            "gamma": 90.0,
            "volume": 585.2894864502322
        },
        "sites": [
            {
                "species": [
                    {
                        "element": "Rb",
                        "occu": 1
                    }
                ],
                "abc": [
                    0.17241648,
                    0.89694064,
                    0.5
                ],
                "xyz": [
                    1.2619917303657457,
                    12.713825625370067,
                    2.82065808
                ],
                "label": "Rb",
                "properties": {}
            },
            {
                "species": [
                    {
                        "element": "Rb",
                        "occu": 1
                    }
                ],
                "abc": [
                    0.82758352,
                    0.10305936,
                    0.5
                ],
                "xyz": [
                    6.057446239634254,
                    1.460831044629931,
                    2.82065808
                ],
                "label": "Rb",
                "properties": {}
            },
            {
                "species": [
                    {
                        "element": "Rb",
                        "occu": 1
                    }
                ],
                "abc": [
                    0.0,
                    0.5,
                    0.0
                ],
                "xyz": [
                    0.0,
                    7.087328335,
                    0.0
                ],
                "label": "Rb",
                "properties": {}
            },
            {
                "species": [
                    {
                        "element": "Rb",
                        "occu": 1
                    }
                ],
                "abc": [
                    0.5,
                    0.0,
                    0.0
                ],
                "xyz": [
                    3.659718985,
                    0.0,
                    0.0
                ],
                "label": "Rb",
                "properties": {}
            },
            {
                "species": [
                    {
                        "element": "Rb",
                        "occu": 1
                    }
                ],
                "abc": [
                    0.11824554,
                    0.23397612,
                    0.0
                ],
                "xyz": [
                    0.8654908952591538,
                    3.3165311699787203,
                    0.0
                ],
                "label": "Rb",
                "properties": {}
            },
            {
                "species": [
                    {
                        "element": "Rb",
                        "occu": 1
                    }
                ],
                "abc": [
                    0.88175446,
                    0.76602388,
                    0.0
                ],
                "xyz": [
                    6.453947074740847,
                    10.858125500021279,
                    0.0
                ],
                "label": "Rb",
                "properties": {}
            },
            {
                "species": [
                    {
                        "element": "Rb",
                        "occu": 1
                    }
                ],
                "abc": [
                    0.61824554,
                    0.26602388,
                    0.0
                ],
                "xyz": [
                    4.525209880259154,
                    3.7707971650212793,
                    0.0
                ],
                "label": "Rb",
                "properties": {}
            },
            {
                "species": [
                    {
                        "element": "Rb",
                        "occu": 1
                    }
                ],
                "abc": [
                    0.38175446,
                    0.73397612,
                    0.0
                ],
                "xyz": [
                    2.7942280897408462,
                    10.40385950497872,
                    0.0
                ],
                "label": "Rb",
                "properties": {}
            },
            {
                "species": [
                    {
                        "element": "Rb",
                        "occu": 1
                    }
                ],
                "abc": [
                    0.32758352,
                    0.39694064,
                    0.5
                ],
                "xyz": [
                    2.3977272546342547,
                    5.626497290370069,
                    2.82065808
                ],
                "label": "Rb",
                "properties": {}
            },
            {
                "species": [
                    {
                        "element": "Rb",
                        "occu": 1
                    }
                ],
                "abc": [
                    0.67241648,
                    0.60305936,
                    0.5
                ],
                "xyz": [
                    4.921710715365745,
                    8.548159379629931,
                    2.82065808
                ],
                "label": "Rb",
                "properties": {}
            },
            {
                "species": [
                    {
                        "element": "Au",
                        "occu": 1
                    }
                ],
                "abc": [
                    0.14674826,
                    0.64385046,
                    0.5
                ],
                "xyz": [
                    1.074114786275432,
                    9.126359217321568,
                    2.82065808
                ],
                "label": "Au",
                "properties": {}
            },
            {
                "species": [
                    {
                        "element": "Au",
                        "occu": 1
                    }
                ],
                "abc": [
                    0.85325174,
                    0.35614954,
                    0.5
                ],
                "xyz": [
                    6.245323183724568,
                    5.048297452678431,
                    2.82065808
                ],
                "label": "Au",
                "properties": {}
            },
            {
                "species": [
                    {
                        "element": "Au",
                        "occu": 1
                    }
                ],
                "abc": [
                    0.64674826,
                    0.85614954,
                    0.5
                ],
                "xyz": [
                    4.733833771275432,
                    12.13562578767843,
                    2.82065808
                ],
                "label": "Au",
                "properties": {}
            },
            {
                "species": [
                    {
                        "element": "Au",
                        "occu": 1
                    }
                ],
                "abc": [
                    0.35325174,
                    0.14385046,
                    0.5
                ],
                "xyz": [
                    2.5856041987245675,
                    2.039030882321568,
                    2.82065808
                ],
                "label": "Au",
                "properties": {}
            },
            {
                "species": [
                    {
                        "element": "Au",
                        "occu": 1
                    }
                ],
                "abc": [
                    0.5,
                    0.5,
                    0.0
                ],
                "xyz": [
                    3.659718985,
                    7.087328335,
                    0.0
                ],
                "label": "Au",
                "properties": {}
            },
            {
                "species": [
                    {
                        "element": "Au",
                        "occu": 1
                    }
                ],
                "abc": [
                    0.0,
                    0.0,
                    0.0
                ],
                "xyz": [
                    0.0,
                    0.0,
                    0.0
                ],
                "label": "Au",
                "properties": {}
            },
            {
                "species": [
                    {
                        "element": "O",
                        "occu": 1
                    }
                ],
                "abc": [
                    0.1744013,
                    0.89115686,
                    0.0
                ],
                "xyz": [
                    1.276519497237361,
                    12.631842529615255,
                    0.0
                ],
                "label": "O",
                "properties": {}
            },
            {
                "species": [
                    {
                        "element": "O",
                        "occu": 1
                    }
                ],
                "abc": [
                    0.8255987,
                    0.10884314,
                    0.0
                ],
                "xyz": [
                    6.042918472762639,
                    1.5428141403847437,
                    0.0
                ],
                "label": "O",
                "properties": {}
            },
            {
                "species": [
                    {
                        "element": "O",
                        "occu": 1
                    }
                ],
                "abc": [
                    0.6744013,
                    0.60884314,
                    0.0
                ],
                "xyz": [
                    4.936238482237361,
                    8.630142475384742,
                    0.0
                ],
                "label": "O",
                "properties": {}
            },
            {
                "species": [
                    {
                        "element": "O",
                        "occu": 1
                    }
                ],
                "abc": [
                    0.3255987,
                    0.39115686,
                    0.0
                ],
                "xyz": [
                    2.383199487762639,
                    5.544514194615256,
                    0.0
                ],
                "label": "O",
                "properties": {}
            }
        ]
    },
    "spacegroup": {
        "source": "spglib",
        "symbol": "Pbam",
        "number": 55,
        "point_group": "mmm",
        "crystal_system": "orthorhombic",
        "hall": "-P 2 2ab"
    },
    "dielectric": {
        "epsilon_ionic": [
            [
                6.29821827,
                -3e-08,
                -2.3e-07
            ],
            [
                -3e-08,
                5.59075822,
                1e-08
            ],
            [
                -2.3e-07,
                1e-08,
                4.81163654
            ]
        ],
        "epsilon_ionic_avg": 5.566871009999997,
        "epsilon_ionic_eig": [
            6.298218270000036,
            4.811636539999959,
            5.590758219999998
        ],
        "epsilon_electronic": [
            [
                4.11962983,
                0.0,
                0.0
            ],
            [
                0.0,
                4.17249108,
                0.0
            ],
            [
                0.0,
                0.0,
                3.91714905
            ]
        ],
        "epsilon_electronic_avg": 4.069756653333333,
        "epsilon_electronic_eig": [
            4.11962983,
            4.17249108,
            3.91714905
        ]
    },
    "phonon": {
        "lowest_freq": -0.03918222967959461,
        "frequency": [
            -0.03918222967959461,
            -0.015274205293872661,
            -0.01242994777778396,
            0.7208771593405792,
            0.7660207206087749,
            0.7766561166929935,
            0.80510453004941,
            0.8647255685138794,
            0.8930097826832107,
            0.9035129471250449,
            0.9226091076629018,
            1.0872054411998588,
            1.1020528894448283,
            1.1429673709354007,
            1.1475965707237339,
            1.190853411685581,
            1.353676098717791,
            1.4259463039479037,
            1.4445089167502754,
            1.535547109518543,
            1.537224398123518,
            1.540104348758208,
            1.54473161294893,
            1.570214837540657,
            1.5839988845490098,
            1.584357143520011,
            1.6148302669341261,
            1.6336469295279308,
            1.6937446652688763,
            1.7556540112450136,
            1.8522810955546585,
            1.8550737606673704,
            2.181838862743652,
            2.2132798209098543,
            2.2169068804637293,
            2.4132659709004454,
            2.4629221519548854,
            2.4862087351957167,
            2.499405574000266,
            2.58011281619842,
            2.6996623793446273,
            2.783435595463178,
            2.8093267492047898,
            3.101976036956283,
            3.1708637095370413,
            3.216826998055452,
            3.386741139458643,
            3.6722207544244183,
            5.6686798207017555,
            5.706579369277126,
            6.581525394595804,
            6.734462567511809,
            7.668274915096513,
            7.6960747337574835,
            7.771173311218814,
            7.966167868175611,
            15.453422214093615,
            16.169437499058066,
            16.547536611831436,
            16.658987157747852
        ]
    },
    "born_effective_charge": {
        "avg_abs_trace": 1.2199140000000002,
        "tensors": [
            [
                [
                    1.11488,
                    0.0296,
                    0.0
                ],
                [
                    0.00424,
                    1.11191,
                    0.0
                ],
                [
                    5e-05,
                    -0.00011,
                    1.34973
                ]
            ],
            [
                [
                    1.11474,
                    0.02942,
                    0.0
                ],
                [
                    0.00425,
                    1.11187,
                    0.0
                ],
                [
                    -5e-05,
                    0.00011,
                    1.34973
                ]
            ],
            [
                [
                    1.47259,
                    -0.12206,
                    0.0
                ],
                [
                    0.00573,
                    0.97588,
                    0.0
                ],
                [
                    0.0,
                    0.0,
                    1.17909
                ]
            ],
            [
                [
                    1.47259,
                    0.12206,
                    0.0
                ],
                [
                    -0.00573,
                    0.97588,
                    0.0
                ],
                [
                    0.0,
                    0.0,
                    1.17909
                ]
            ],
            [
                [
                    1.15641,
                    0.21105,
                    0.0
                ],
                [
                    0.25829,
                    1.45094,
                    0.0
                ],
                [
                    1e-05,
                    -7e-05,
                    1.15196
                ]
            ],
            [
                [
                    1.15607,
                    0.21119,
                    0.0
                ],
                [
                    0.25839,
                    1.45094,
                    0.0
                ],
                [
                    -1e-05,
                    7e-05,
                    1.15196
                ]
            ],
            [
                [
                    1.15641,
                    -0.21105,
                    0.0
                ],
                [
                    -0.25839,
                    1.45094,
                    0.0
                ],
                [
                    1e-05,
                    7e-05,
                    1.15196
                ]
            ],
            [
                [
                    1.15607,
                    -0.21119,
                    0.0
                ],
                [
                    -0.25829,
                    1.45094,
                    0.0
                ],
                [
                    -1e-05,
                    -7e-05,
                    1.15196
                ]
            ],
            [
                [
                    1.11474,
                    -0.02942,
                    0.0
                ],
                [
                    -0.00424,
                    1.11191,
                    0.0
                ],
                [
                    -5e-05,
                    -0.00011,
                    1.34973
                ]
            ],
            [
                [
                    1.11488,
                    -0.0296,
                    0.0
                ],
                [
                    -0.00425,
                    1.11187,
                    0.0
                ],
                [
                    5e-05,
                    0.00011,
                    1.34973
                ]
            ],
            [
                [
                    -1.00047,
                    -0.01176,
                    0.0
                ],
                [
                    -0.03259,
                    -1.02508,
                    0.0
                ],
                [
                    0.00017,
                    -0.00017,
                    -1.05356
                ]
            ],
            [
                [
                    -1.00033,
                    -0.01285,
                    0.0
                ],
                [
                    -0.03267,
                    -1.0251,
                    0.0
                ],
                [
                    -0.00017,
                    0.00017,
                    -1.05356
                ]
            ],
            [
                [
                    -1.00047,
                    0.01176,
                    0.0
                ],
                [
                    0.03267,
                    -1.0251,
                    0.0
                ],
                [
                    0.00017,
                    0.00017,
                    -1.05356
                ]
            ],
            [
                [
                    -1.00033,
                    0.01285,
                    0.0
                ],
                [
                    0.03259,
                    -1.02508,
                    0.0
                ],
                [
                    -0.00017,
                    -0.00017,
                    -1.05356
                ]
            ],
            [
                [
                    0.11158,
                    1.6806,
                    0.0
                ],
                [
                    1.73031,
                    0.84948,
                    0.0
                ],
                [
                    0.0,
                    0.0,
                    -1.21482
                ]
            ],
            [
                [
                    0.11158,
                    -1.6806,
                    0.0
                ],
                [
                    -1.73031,
                    0.84948,
                    0.0
                ],
                [
                    0.0,
                    0.0,
                    -1.21482
                ]
            ],
            [
                [
                    -2.06255,
                    0.76919,
                    0.0
                ],
                [
                    0.78076,
                    -2.45044,
                    0.0
                ],
                [
                    -0.00012,
                    0.00025,
                    -1.43026
                ]
            ],
            [
                [
                    -2.06294,
                    0.76908,
                    0.0
                ],
                [
                    0.78107,
                    -2.45041,
                    0.0
                ],
                [
                    0.00012,
                    -0.00025,
                    -1.43026
                ]
            ],
            [
                [
                    -2.06255,
                    -0.76919,
                    0.0
                ],
                [
                    -0.78107,
                    -2.45041,
                    0.0
                ],
                [
                    -0.00012,
                    -0.00025,
                    -1.43026
                ]
            ],
            [
                [
                    -2.06294,
                    -0.76908,
                    0.0
                ],
                [
                    -0.78076,
                    -2.45044,
                    0.0
                ],
                [
                    0.00012,
                    0.00025,
                    -1.43026
                ]
            ]
        ]
    },
    "band_gap": 0.8962000000000001,
    "is_direct": false,
    "formula": "Rb5Au3O2"
}