{
    "mp_id": "mp-22984",
    "nelements": 3,
    "nsites": 8,
    "elements": [
        "Bi",
        "Na",
        "O"
    ],
    "structure": {
        "@module": "pymatgen.core.structure",
        "@class": "Structure",
        "charge": null,
        "lattice": {
            "matrix": [
                [
                    3.54343612,
                    -3.48653793,
                    0.00110196
                ],
                [
                    3.54343612,
                    3.48653793,
                    0.00110196
                ],
                [
                    -3.46629472,
                    0.0,
                    4.78336558
                ]
            ],
            "a": 4.971105258206185,
            "b": 4.971105258206185,
            "c": 5.907265472096934,
            "alpha": 114.7137227183018,
            "beta": 114.7137227183018,
            "gamma": 89.07255284847736,
            "volume": 118.2171357165042
        },
        "sites": [
            {
                "species": [
                    {
                        "element": "Na",
                        "occu": 1
                    }
                ],
                "abc": [
                    0.37259509,
                    0.62740491,
                    0.75
                ],
                "xyz": [
                    0.94371508,
                    0.8884041023664724,
                    3.588626145
                ],
                "label": "Na",
                "properties": {}
            },
            {
                "species": [
                    {
                        "element": "Na",
                        "occu": 1
                    }
                ],
                "abc": [
                    0.62740491,
                    0.37259509,
                    0.25
                ],
                "xyz": [
                    2.67686244,
                    -0.8884041023664724,
                    1.196943355
                ],
                "label": "Na",
                "properties": {}
            },
            {
                "species": [
                    {
                        "element": "Bi",
                        "occu": 1
                    }
                ],
                "abc": [
                    0.12247177,
                    0.87752823,
                    0.25
                ],
                "xyz": [
                    2.67686244,
                    2.632532987081528,
                    1.196943355
                ],
                "label": "Bi",
                "properties": {}
            },
            {
                "species": [
                    {
                        "element": "Bi",
                        "occu": 1
                    }
                ],
                "abc": [
                    0.87752823,
                    0.12247177,
                    0.75
                ],
                "xyz": [
                    0.94371508,
                    -2.632532987081528,
                    3.588626145
                ],
                "label": "Bi",
                "properties": {}
            },
            {
                "species": [
                    {
                        "element": "O",
                        "occu": 1
                    }
                ],
                "abc": [
                    0.13092828,
                    0.30864364,
                    0.24282411
                ],
                "xyz": [
                    0.7158950882840511,
                    0.6196113433836047,
                    1.162000880441097
                ],
                "label": "O",
                "properties": {}
            },
            {
                "species": [
                    {
                        "element": "O",
                        "occu": 1
                    }
                ],
                "abc": [
                    0.69135636,
                    0.86907172,
                    0.25717589
                ],
                "xyz": [
                    4.637829791715948,
                    0.619611343383605,
                    1.2318858295589032
                ],
                "label": "O",
                "properties": {}
            },
            {
                "species": [
                    {
                        "element": "O",
                        "occu": 1
                    }
                ],
                "abc": [
                    0.30864364,
                    0.13092828,
                    0.74282411
                ],
                "xyz": [
                    -1.017252271715949,
                    -0.6196113433836047,
                    3.553683670441097
                ],
                "label": "O",
                "properties": {}
            },
            {
                "species": [
                    {
                        "element": "O",
                        "occu": 1
                    }
                ],
                "abc": [
                    0.86907172,
                    0.69135636,
                    0.75717589
                ],
                "xyz": [
                    2.9046824317159485,
                    -0.619611343383605,
                    3.623568619558903
                ],
                "label": "O",
                "properties": {}
            }
        ]
    },
    "spacegroup": {
        "source": "spglib",
        "symbol": "C2/c",
        "number": 15,
        "point_group": "2/m",
        "crystal_system": "monoclinic",
        "hall": "-C 2yc"
    },
    "dielectric": {
        "epsilon_ionic": [
            [
                14.42474547,
                -3.8e-07,
                -10.47746205
            ],
            [
                -3.8e-07,
                7.51188004,
                4.2e-07
            ],
            [
                -10.47746205,
                4.2e-07,
                22.0835899
            ]
        ],
        "epsilon_ionic_avg": 14.673405136666672,
        "epsilon_ionic_eig": [
            29.40951104636393,
            7.098824323636086,
            7.511880039999996
        ],
        "epsilon_electronic": [
            [
                6.81908612,
                0.0,
                -0.45086585
            ],
            [
                0.0,
                6.04942654,
                0.0
            ],
            [
                -0.45086164,
                0.0,
                5.55056588
            ]
        ],
        "epsilon_electronic_avg": 6.139692846666666,
        "epsilon_electronic_eig": [
            6.963005938300524,
            5.406646061699475,
            6.04942654
        ]
    },
    "phonon": {
        "lowest_freq": -0.21505512420047213,
        "frequency": [
            -0.21505512420047213,
            -0.012995098638486153,
            -0.006067970624751895,
            2.285419880836408,
            3.2587298826583755,
            4.022155416338383,
            4.698437321860508,
            5.021775517921597,
            5.203935294644634,
            5.204110704032906,
            5.312043203945262,
            5.40719353626637,
            5.803810108754076,
            6.469178409664886,
            6.594834191487149,
            7.132138284085987,
            7.5890866800295305,
            8.031107913718378,
            9.678075656249883,
            10.45311113061031,
            10.573054785114845,
            11.051150432439588,
            11.687402676151287,
            12.470057423359828
        ]
    },
    "born_effective_charge": {
        "avg_abs_trace": 2.509370416666667,
        "tensors": [
            [
                [
                    1.07104,
                    2e-05,
                    0.0628
                ],
                [
                    0.0,
                    1.12151,
                    0.0
                ],
                [
                    0.05436,
                    -3e-05,
                    1.19555
                ]
            ],
            [
                [
                    1.07104,
                    -2e-05,
                    0.0628
                ],
                [
                    0.0,
                    1.12149,
                    0.0
                ],
                [
                    0.05436,
                    3e-05,
                    1.19555
                ]
            ],
            [
                [
                    4.08769,
                    0.00014,
                    -1.0548
                ],
                [
                    0.0,
                    3.62548,
                    0.0
                ],
                [
                    -1.06013,
                    -3e-05,
                    3.95497
                ]
            ],
            [
                [
                    4.08769,
                    -0.00014,
                    -1.0548
                ],
                [
                    0.0,
                    3.62547,
                    0.0
                ],
                [
                    -1.06013,
                    3e-05,
                    3.95497
                ]
            ],
            [
                [
                    -2.57919,
                    -1.71462,
                    0.49587
                ],
                [
                    -1.25096,
                    -2.37382,
                    0.14764
                ],
                [
                    0.50239,
                    0.49329,
                    -2.57499
                ]
            ],
            [
                [
                    -2.57953,
                    1.71588,
                    0.49613
                ],
                [
                    1.25096,
                    -2.37382,
                    -0.14764
                ],
                [
                    0.50338,
                    -0.49454,
                    -2.57553
                ]
            ],
            [
                [
                    -2.57919,
                    1.71462,
                    0.49587
                ],
                [
                    1.25017,
                    -2.37316,
                    -0.14808
                ],
                [
                    0.50239,
                    -0.49329,
                    -2.57499
                ]
            ],
            [
                [
                    -2.57953,
                    -1.71588,
                    0.49613
                ],
                [
                    -1.25017,
                    -2.37316,
                    0.14808
                ],
                [
                    0.50338,
                    0.49454,
                    -2.57553
                ]
            ]
        ]
    },
    "band_gap": 0.7866999999999997,
    "is_direct": true,
    "formula": "NaBiO2"
}