{
    "mp_id": "mp-27559",
    "nelements": 3,
    "nsites": 25,
    "elements": [
        "Cd",
        "Na",
        "O"
    ],
    "structure": {
        "@module": "pymatgen.core.structure",
        "@class": "Structure",
        "charge": null,
        "lattice": {
            "matrix": [
                [
                    6.7020203,
                    2e-08,
                    0.0
                ],
                [
                    -3.35101067,
                    5.80412008,
                    0.0
                ],
                [
                    0.0,
                    0.0,
                    9.31723317
                ]
            ],
            "a": 6.7020203,
            "b": 6.702020770895376,
            "c": 9.31723317,
            "alpha": 90.0,
            "beta": 90.0,
            "gamma": 120.00000263799748,
            "volume": 362.4341339796734
        },
        "sites": [
            {
                "species": [
                    {
                        "element": "Na",
                        "occu": 1
                    }
                ],
                "abc": [
                    0.31736471,
                    0.35877105,
                    0.9074285
                ],
                "xyz": [
                    0.9247391122865094,
                    2.082350261774978,
                    8.454722919603345
                ],
                "label": "Na",
                "properties": {}
            },
            {
                "species": [
                    {
                        "element": "Na",
                        "occu": 1
                    }
                ],
                "abc": [
                    0.95859366,
                    0.31736471,
                    0.0925715
                ],
                "xyz": [
                    5.361021639279842,
                    1.8420229051662498,
                    0.862510250396655
                ],
                "label": "Na",
                "properties": {}
            },
            {
                "species": [
                    {
                        "element": "Na",
                        "occu": 1
                    }
                ],
                "abc": [
                    0.64122895,
                    0.95859366,
                    0.9074285
                ],
                "xyz": [
                    1.0852718569933333,
                    5.563792723391272,
                    8.454722919603345
                ],
                "label": "Na",
                "properties": {}
            },
            {
                "species": [
                    {
                        "element": "Na",
                        "occu": 1
                    }
                ],
                "abc": [
                    0.6862104,
                    0.06087652,
                    0.40923235
                ],
                "xyz": [
                    4.394998162798652,
                    0.3533346458567296,
                    3.8129132256570495
                ],
                "label": "Na",
                "properties": {}
            },
            {
                "species": [
                    {
                        "element": "Na",
                        "occu": 1
                    }
                ],
                "abc": [
                    0.04140634,
                    0.68263529,
                    0.9074285
                ],
                "xyz": [
                    -2.0100120092798424,
                    3.96209719483375,
                    8.454722919603345
                ],
                "label": "Na",
                "properties": {}
            },
            {
                "species": [
                    {
                        "element": "Na",
                        "occu": 1
                    }
                ],
                "abc": [
                    0.0,
                    0.0,
                    0.25425701
                ],
                "xyz": [
                    0.0,
                    0.0,
                    2.3689718472770216
                ],
                "label": "Na",
                "properties": {}
            },
            {
                "species": [
                    {
                        "element": "Na",
                        "occu": 1
                    }
                ],
                "abc": [
                    0.0,
                    0.0,
                    0.74574299
                ],
                "xyz": [
                    0.0,
                    0.0,
                    6.948261322722978
                ],
                "label": "Na",
                "properties": {}
            },
            {
                "species": [
                    {
                        "element": "Na",
                        "occu": 1
                    }
                ],
                "abc": [
                    0.68263529,
                    0.64122895,
                    0.0925715
                ],
                "xyz": [
                    2.4262705177134904,
                    3.7217698382250215,
                    0.862510250396655
                ],
                "label": "Na",
                "properties": {}
            },
            {
                "species": [
                    {
                        "element": "Na",
                        "occu": 1
                    }
                ],
                "abc": [
                    0.06087652,
                    0.37466713,
                    0.59076765
                ],
                "xyz": [
                    -0.847517877494921,
                    2.1746130137665007,
                    5.50431994434295
                ],
                "label": "Na",
                "properties": {}
            },
            {
                "species": [
                    {
                        "element": "Na",
                        "occu": 1
                    }
                ],
                "abc": [
                    0.37466713,
                    0.3137896,
                    0.40923235
                ],
                "xyz": [
                    1.4595144132677071,
                    1.8212725257485105,
                    3.8129132256570495
                ],
                "label": "Na",
                "properties": {}
            },
            {
                "species": [
                    {
                        "element": "Na",
                        "occu": 1
                    }
                ],
                "abc": [
                    0.93912348,
                    0.62533287,
                    0.40923235
                ],
                "xyz": [
                    4.198527507494921,
                    3.6295070862334993,
                    3.8129132256570495
                ],
                "label": "Na",
                "properties": {}
            },
            {
                "species": [
                    {
                        "element": "Na",
                        "occu": 1
                    }
                ],
                "abc": [
                    0.3137896,
                    0.93912348,
                    0.59076765
                ],
                "xyz": [
                    -1.0439885327986516,
                    5.45078545414327,
                    5.50431994434295
                ],
                "label": "Na",
                "properties": {}
            },
            {
                "species": [
                    {
                        "element": "Na",
                        "occu": 1
                    }
                ],
                "abc": [
                    0.62533287,
                    0.6862104,
                    0.59076765
                ],
                "xyz": [
                    1.8914952167322934,
                    3.982847574251489,
                    5.50431994434295
                ],
                "label": "Na",
                "properties": {}
            },
            {
                "species": [
                    {
                        "element": "Na",
                        "occu": 1
                    }
                ],
                "abc": [
                    0.35877105,
                    0.04140634,
                    0.0925715
                ],
                "xyz": [
                    2.265737773006667,
                    0.2403273766087282,
                    0.862510250396655
                ],
                "label": "Na",
                "properties": {}
            },
            {
                "species": [
                    {
                        "element": "Cd",
                        "occu": 1
                    }
                ],
                "abc": [
                    0.666667,
                    0.333333,
                    0.7402508
                ],
                "xyz": [
                    3.3510133276769904,
                    1.93470477195998,
                    6.897089307879035
                ],
                "label": "Cd",
                "properties": {}
            },
            {
                "species": [
                    {
                        "element": "Cd",
                        "occu": 1
                    }
                ],
                "abc": [
                    0.333333,
                    0.666667,
                    0.2597492
                ],
                "xyz": [
                    -3.6976769903773743e-06,
                    3.86941532804002,
                    2.420143862120964
                ],
                "label": "Cd",
                "properties": {}
            },
            {
                "species": [
                    {
                        "element": "O",
                        "occu": 1
                    }
                ],
                "abc": [
                    0.3054035,
                    0.96295955,
                    0.34066318
                ],
                "xyz": [
                    -1.1800672701373482,
                    5.589132866490833,
                    3.1740382804936806
                ],
                "label": "O",
                "properties": {}
            },
            {
                "species": [
                    {
                        "element": "O",
                        "occu": 1
                    }
                ],
                "abc": [
                    0.65755606,
                    0.6945965,
                    0.34066318
                ],
                "xyz": [
                    2.0793537796633634,
                    4.031521506298841,
                    3.1740382804936806
                ],
                "label": "O",
                "properties": {}
            },
            {
                "species": [
                    {
                        "element": "O",
                        "occu": 1
                    }
                ],
                "abc": [
                    0.03704045,
                    0.34244394,
                    0.34066318
                ],
                "xyz": [
                    -0.8992874489957047,
                    1.987585749169124,
                    3.1740382804936806
                ],
                "label": "O",
                "properties": {}
            },
            {
                "species": [
                    {
                        "element": "O",
                        "occu": 1
                    }
                ],
                "abc": [
                    0.6945965,
                    0.03704045,
                    0.65933682
                ],
                "xyz": [
                    4.531076900137348,
                    0.214987233509166,
                    6.1431948895063195
                ],
                "label": "O",
                "properties": {}
            },
            {
                "species": [
                    {
                        "element": "O",
                        "occu": 1
                    }
                ],
                "abc": [
                    0.34244394,
                    0.3054035,
                    0.65933682
                ],
                "xyz": [
                    1.2716558503366369,
                    1.7725985937011586,
                    6.1431948895063195
                ],
                "label": "O",
                "properties": {}
            },
            {
                "species": [
                    {
                        "element": "O",
                        "occu": 1
                    }
                ],
                "abc": [
                    0.96295955,
                    0.65755606,
                    0.65933682
                ],
                "xyz": [
                    4.250297078995705,
                    3.8165343508308758,
                    6.1431948895063195
                ],
                "label": "O",
                "properties": {}
            },
            {
                "species": [
                    {
                        "element": "O",
                        "occu": 1
                    }
                ],
                "abc": [
                    0.0,
                    0.0,
                    0.0
                ],
                "xyz": [
                    0.0,
                    0.0,
                    0.0
                ],
                "label": "O",
                "properties": {}
            },
            {
                "species": [
                    {
                        "element": "O",
                        "occu": 1
                    }
                ],
                "abc": [
                    0.666667,
                    0.333333,
                    0.97682605
                ],
                "xyz": [
                    3.3510133276769904,
                    1.93470477195998,
                    9.101316074380078
                ],
                "label": "O",
                "properties": {}
            },
            {
                "species": [
                    {
                        "element": "O",
                        "occu": 1
                    }
                ],
                "abc": [
                    0.333333,
                    0.666667,
                    0.02317395
                ],
                "xyz": [
                    -3.6976769903773743e-06,
                    3.86941532804002,
                    0.21591709561992148
                ],
                "label": "O",
                "properties": {}
            }
        ]
    },
    "spacegroup": {
        "source": "spglib",
        "symbol": "P-3",
        "number": 147,
        "point_group": "-3",
        "crystal_system": "trigonal",
        "hall": "-P 3"
    },
    "dielectric": {
        "epsilon_ionic": [
            [
                4.86612633,
                -2.023e-05,
                2.309e-05
            ],
            [
                -2.023e-05,
                4.86589021,
                -3.448e-05
            ],
            [
                2.309e-05,
                -3.448e-05,
                3.41390671
            ]
        ],
        "epsilon_ionic_avg": 4.381974416666664,
        "epsilon_ionic_eig": [
            3.4139067088140957,
            4.866128051164659,
            4.865888490021237
        ],
        "epsilon_electronic": [
            [
                3.42737204,
                1.51e-06,
                -0.0
            ],
            [
                -9.1e-07,
                3.42737152,
                -0.0
            ],
            [
                -0.0,
                -0.0,
                3.41725153
            ]
        ],
        "epsilon_electronic_avg": 3.423998363333333,
        "epsilon_electronic_eig": [
            3.4273717799999996,
            3.4273717799999996,
            3.41725153
        ]
    },
    "phonon": {
        "lowest_freq": -0.049619966576233,
        "frequency": [
            -0.049619966576233,
            -0.04961996091197753,
            -0.028709631069566588,
            2.48670936808913,
            2.4867096088813594,
            2.9959005539742516,
            3.138079275925949,
            3.138079482313446,
            3.165387334624259,
            3.3837896526462665,
            3.383789717650342,
            3.62426309557391,
            3.6242631899821167,
            3.9539975810318624,
            3.9539977510118214,
            4.126594335703496,
            4.511573321065994,
            4.511573426701038,
            4.587244551810709,
            4.7651999971296135,
            4.924992568620643,
            4.924992712531595,
            5.038498760470817,
            5.0384990030035,
            5.217257212703091,
            5.768567606985745,
            5.7685681153964365,
            5.868764787498524,
            5.9944972762919,
            6.149972928624256,
            6.149973047844356,
            6.1672565791029355,
            6.167256816874908,
            6.547266352688411,
            6.6563668699125715,
            6.838353460379011,
            6.960411399476466,
            6.960411820831084,
            7.169338755855607,
            7.309541061859234,
            7.46064481178041,
            7.46064489367686,
            7.617303258327717,
            7.61730341875203,
            8.030498283103274,
            8.030498663528181,
            8.036846891522615,
            8.114831861049554,
            8.114832177285475,
            8.366011592052306,
            8.428204339027925,
            8.599093068429042,
            8.59909326738036,
            8.796361656184512,
            8.819300122758056,
            8.90777609181322,
            8.907776228996804,
            9.161497873185105,
            9.161498033246351,
            9.418580562682614,
            9.418581120580129,
            9.47039098434682,
            9.470391668226004,
            9.524796592585055,
            9.524796900497304,
            10.001101966865361,
            10.871420646835803,
            12.302381670191739,
            12.487538631824153,
            12.487539150469463,
            12.71154794831611,
            12.711548419368349,
            12.861835946732743,
            14.330947052224928,
            14.438686763458229
        ]
    },
    "born_effective_charge": {
        "avg_abs_trace": 1.2976885333333334,
        "tensors": [
            [
                [
                    0.96417,
                    0.02117,
                    -0.10264
                ],
                [
                    0.03065,
                    0.87313,
                    0.00335
                ],
                [
                    -0.12123,
                    0.08148,
                    0.81263
                ]
            ],
            [
                [
                    0.87349,
                    0.02173,
                    0.05435
                ],
                [
                    0.03118,
                    0.96386,
                    0.08715
                ],
                [
                    0.13116,
                    0.06427,
                    0.81258
                ]
            ],
            [
                [
                    0.91837,
                    -0.05713,
                    0.04846
                ],
                [
                    -0.04765,
                    0.91901,
                    -0.09075
                ],
                [
                    -0.00995,
                    -0.14573,
                    0.81263
                ]
            ],
            [
                [
                    0.84388,
                    0.07222,
                    -0.05495
                ],
                [
                    0.10606,
                    0.97511,
                    0.11779
                ],
                [
                    -0.01141,
                    0.0741,
                    1.00153
                ]
            ],
            [
                [
                    0.87348,
                    0.02175,
                    0.05438
                ],
                [
                    0.03117,
                    0.96385,
                    0.08715
                ],
                [
                    0.13118,
                    0.06425,
                    0.81263
                ]
            ],
            [
                [
                    0.9107,
                    0.07242,
                    0.0
                ],
                [
                    -0.07246,
                    0.91068,
                    -4e-05
                ],
                [
                    0.0,
                    0.0,
                    0.85426
                ]
            ],
            [
                [
                    0.91071,
                    0.07245,
                    4e-05
                ],
                [
                    -0.07248,
                    0.91068,
                    -3e-05
                ],
                [
                    0.0,
                    0.0,
                    0.85421
                ]
            ],
            [
                [
                    0.96419,
                    0.02119,
                    -0.10267
                ],
                [
                    0.03066,
                    0.87312,
                    0.00333
                ],
                [
                    -0.12124,
                    0.08146,
                    0.81258
                ]
            ],
            [
                [
                    1.01954,
                    -0.00466,
                    -0.07462
                ],
                [
                    0.02911,
                    0.79943,
                    -0.10622
                ],
                [
                    -0.05847,
                    -0.04691,
                    1.00164
                ]
            ],
            [
                [
                    0.86507,
                    -0.11831,
                    0.12919
                ],
                [
                    -0.0845,
                    0.95391,
                    -0.01126
                ],
                [
                    0.06988,
                    -0.02717,
                    1.00153
                ]
            ],
            [
                [
                    1.01953,
                    -0.00464,
                    -0.07462
                ],
                [
                    0.02912,
                    0.79945,
                    -0.10621
                ],
                [
                    -0.05847,
                    -0.04693,
                    1.00153
                ]
            ],
            [
                [
                    0.84388,
                    0.07223,
                    -0.05494
                ],
                [
                    0.10608,
                    0.97509,
                    0.1178
                ],
                [
                    -0.01139,
                    0.07409,
                    1.00164
                ]
            ],
            [
                [
                    0.86504,
                    -0.11832,
                    0.1292
                ],
                [
                    -0.08449,
                    0.95392,
                    -0.01126
                ],
                [
                    0.06986,
                    -0.02718,
                    1.00164
                ]
            ],
            [
                [
                    0.91835,
                    -0.05715,
                    0.04844
                ],
                [
                    -0.04766,
                    0.919,
                    -0.09076
                ],
                [
                    -0.00992,
                    -0.14572,
                    0.81258
                ]
            ],
            [
                [
                    1.73823,
                    0.02086,
                    0.00033
                ],
                [
                    -0.02066,
                    1.73807,
                    -0.00022
                ],
                [
                    0.0,
                    0.0,
                    1.7682
                ]
            ],
            [
                [
                    1.73822,
                    0.02077,
                    0.00037
                ],
                [
                    -0.0206,
                    1.73803,
                    -0.00027
                ],
                [
                    0.0,
                    0.0,
                    1.76831
                ]
            ],
            [
                [
                    -1.77568,
                    0.2621,
                    0.09787
                ],
                [
                    0.27316,
                    -1.99189,
                    -0.17367
                ],
                [
                    0.10119,
                    -0.17466,
                    -1.72289
                ]
            ],
            [
                [
                    -2.16974,
                    -0.04558,
                    -0.19923
                ],
                [
                    -0.03468,
                    -1.59808,
                    0.002
                ],
                [
                    -0.20186,
                    -0.00031,
                    -1.72289
                ]
            ],
            [
                [
                    -1.70629,
                    -0.23303,
                    0.10158
                ],
                [
                    -0.22207,
                    -2.06149,
                    0.17159
                ],
                [
                    0.10066,
                    0.17497,
                    -1.72289
                ]
            ],
            [
                [
                    -1.77569,
                    0.26195,
                    0.09782
                ],
                [
                    0.27325,
                    -1.99202,
                    -0.17363
                ],
                [
                    0.10114,
                    -0.17457,
                    -1.72292
                ]
            ],
            [
                [
                    -2.1698,
                    -0.04559,
                    -0.19927
                ],
                [
                    -0.03452,
                    -1.59809,
                    0.002
                ],
                [
                    -0.20175,
                    -0.00031,
                    -1.72292
                ]
            ],
            [
                [
                    -1.70638,
                    -0.23318,
                    0.10153
                ],
                [
                    -0.22205,
                    -2.06153,
                    0.17149
                ],
                [
                    0.10061,
                    0.17488,
                    -1.72292
                ]
            ],
            [
                [
                    -1.75214,
                    -0.03678,
                    -0.00022
                ],
                [
                    0.03687,
                    -1.7521,
                    6e-05
                ],
                [
                    0.0,
                    0.0,
                    -1.59251
                ]
            ],
            [
                [
                    -1.60555,
                    0.00677,
                    -0.0002
                ],
                [
                    -0.00674,
                    -1.60556,
                    0.00031
                ],
                [
                    0.0,
                    0.0,
                    -2.09989
                ]
            ],
            [
                [
                    -1.60557,
                    0.00676,
                    -0.00022
                ],
                [
                    -0.00675,
                    -1.60559,
                    0.00027
                ],
                [
                    0.0,
                    0.0,
                    -2.10031
                ]
            ]
        ]
    },
    "band_gap": 1.4951000000000003,
    "is_direct": true,
    "formula": "Na14Cd2O9"
}