{
    "mp_id": "mp-22170",
    "nelements": 3,
    "nsites": 18,
    "elements": [
        "Li",
        "O",
        "Pb"
    ],
    "structure": {
        "@module": "pymatgen.core.structure",
        "@class": "Structure",
        "charge": null,
        "lattice": {
            "matrix": [
                [
                    4.18926686,
                    -3.59380543,
                    0.0
                ],
                [
                    4.18926686,
                    3.59380543,
                    0.0
                ],
                [
                    0.0,
                    0.0,
                    6.57776043
                ]
            ],
            "a": 5.519546565886707,
            "b": 5.519546565886707,
            "c": 6.57776043,
            "alpha": 90.0,
            "beta": 90.0,
            "gamma": 81.24996115536644,
            "volume": 198.06176016860263
        },
        "sites": [
            {
                "species": [
                    {
                        "element": "Li",
                        "occu": 1
                    }
                ],
                "abc": [
                    0.15387777,
                    0.15387777,
                    0.5
                ],
                "xyz": [
                    1.2892700847034044,
                    0.0,
                    3.288880215
                ],
                "label": "Li",
                "properties": {}
            },
            {
                "species": [
                    {
                        "element": "Li",
                        "occu": 1
                    }
                ],
                "abc": [
                    0.84612223,
                    0.84612223,
                    0.0
                ],
                "xyz": [
                    7.089263635296596,
                    0.0,
                    0.0
                ],
                "label": "Li",
                "properties": {}
            },
            {
                "species": [
                    {
                        "element": "Li",
                        "occu": 1
                    }
                ],
                "abc": [
                    0.40452652,
                    0.88939502,
                    0.25
                ],
                "xyz": [
                    5.420582626962164,
                    1.7425230481359553,
                    1.6444401075
                ],
                "label": "Li",
                "properties": {}
            },
            {
                "species": [
                    {
                        "element": "Li",
                        "occu": 1
                    }
                ],
                "abc": [
                    0.59547348,
                    0.11060498,
                    0.75
                ],
                "xyz": [
                    2.9579510930378357,
                    -1.742523048135955,
                    4.9333203225
                ],
                "label": "Li",
                "properties": {}
            },
            {
                "species": [
                    {
                        "element": "Li",
                        "occu": 1
                    }
                ],
                "abc": [
                    0.11060498,
                    0.59547348,
                    0.25
                ],
                "xyz": [
                    2.9579510930378357,
                    1.742523048135955,
                    1.6444401075
                ],
                "label": "Li",
                "properties": {}
            },
            {
                "species": [
                    {
                        "element": "Li",
                        "occu": 1
                    }
                ],
                "abc": [
                    0.88939502,
                    0.40452652,
                    0.75
                ],
                "xyz": [
                    5.420582626962164,
                    -1.7425230481359553,
                    4.9333203225
                ],
                "label": "Li",
                "properties": {}
            },
            {
                "species": [
                    {
                        "element": "Li",
                        "occu": 1
                    }
                ],
                "abc": [
                    0.15387777,
                    0.15387777,
                    0.0
                ],
                "xyz": [
                    1.2892700847034044,
                    0.0,
                    0.0
                ],
                "label": "Li",
                "properties": {}
            },
            {
                "species": [
                    {
                        "element": "Li",
                        "occu": 1
                    }
                ],
                "abc": [
                    0.84612223,
                    0.84612223,
                    0.5
                ],
                "xyz": [
                    7.089263635296596,
                    0.0,
                    3.288880215
                ],
                "label": "Li",
                "properties": {}
            },
            {
                "species": [
                    {
                        "element": "Pb",
                        "occu": 1
                    }
                ],
                "abc": [
                    0.35787862,
                    0.64212138,
                    0.75
                ],
                "xyz": [
                    4.18926686,
                    1.0215131743261867,
                    4.9333203225
                ],
                "label": "Pb",
                "properties": {}
            },
            {
                "species": [
                    {
                        "element": "Pb",
                        "occu": 1
                    }
                ],
                "abc": [
                    0.64212138,
                    0.35787862,
                    0.25
                ],
                "xyz": [
                    4.18926686,
                    -1.0215131743261867,
                    1.6444401075
                ],
                "label": "Pb",
                "properties": {}
            },
            {
                "species": [
                    {
                        "element": "O",
                        "occu": 1
                    }
                ],
                "abc": [
                    0.7412425,
                    0.71183095,
                    0.25
                ],
                "xyz": [
                    6.087312449230867,
                    -0.1056993880947168,
                    1.6444401075
                ],
                "label": "O",
                "properties": {}
            },
            {
                "species": [
                    {
                        "element": "O",
                        "occu": 1
                    }
                ],
                "abc": [
                    0.2587575,
                    0.28816905,
                    0.75
                ],
                "xyz": [
                    2.2912212707691326,
                    0.10569938809471646,
                    4.9333203225
                ],
                "label": "O",
                "properties": {}
            },
            {
                "species": [
                    {
                        "element": "O",
                        "occu": 1
                    }
                ],
                "abc": [
                    0.2070829,
                    0.7929171,
                    0.02371212
                ],
                "xyz": [
                    4.18926686,
                    2.1053741290397063,
                    0.1559726446474116
                ],
                "label": "O",
                "properties": {}
            },
            {
                "species": [
                    {
                        "element": "O",
                        "occu": 1
                    }
                ],
                "abc": [
                    0.7929171,
                    0.2070829,
                    0.52371212
                ],
                "xyz": [
                    4.18926686,
                    -2.1053741290397063,
                    3.4448528596474115
                ],
                "label": "O",
                "properties": {}
            },
            {
                "species": [
                    {
                        "element": "O",
                        "occu": 1
                    }
                ],
                "abc": [
                    0.2070829,
                    0.7929171,
                    0.47628788
                ],
                "xyz": [
                    4.18926686,
                    2.1053741290397063,
                    3.132907570352588
                ],
                "label": "O",
                "properties": {}
            },
            {
                "species": [
                    {
                        "element": "O",
                        "occu": 1
                    }
                ],
                "abc": [
                    0.7929171,
                    0.2070829,
                    0.97628788
                ],
                "xyz": [
                    4.18926686,
                    -2.1053741290397063,
                    6.421787785352588
                ],
                "label": "O",
                "properties": {}
            },
            {
                "species": [
                    {
                        "element": "O",
                        "occu": 1
                    }
                ],
                "abc": [
                    0.28816905,
                    0.2587575,
                    0.25
                ],
                "xyz": [
                    2.2912212707691326,
                    -0.10569938809471646,
                    1.6444401075
                ],
                "label": "O",
                "properties": {}
            },
            {
                "species": [
                    {
                        "element": "O",
                        "occu": 1
                    }
                ],
                "abc": [
                    0.71183095,
                    0.7412425,
                    0.75
                ],
                "xyz": [
                    6.087312449230867,
                    0.1056993880947168,
                    4.9333203225
                ],
                "label": "O",
                "properties": {}
            }
        ]
    },
    "spacegroup": {
        "source": "spglib",
        "symbol": "Cmcm",
        "number": 63,
        "point_group": "mmm",
        "crystal_system": "orthorhombic",
        "hall": "-C 2c 2"
    },
    "dielectric": {
        "epsilon_ionic": [
            [
                4.25711905,
                -1e-08,
                0.0
            ],
            [
                -1e-08,
                5.65276416,
                -3e-08
            ],
            [
                0.0,
                -3e-08,
                4.10061975
            ]
        ],
        "epsilon_ionic_avg": 4.670167653333333,
        "epsilon_ionic_eig": [
            4.257119050000002,
            5.6527641599999985,
            4.100619749999999
        ],
        "epsilon_electronic": [
            [
                4.20719376,
                0.0,
                0.0
            ],
            [
                0.0,
                3.94486646,
                0.0
            ],
            [
                0.0,
                0.0,
                4.14275688
            ]
        ],
        "epsilon_electronic_avg": 4.0982723666666665,
        "epsilon_electronic_eig": [
            4.20719376,
            3.94486646,
            4.14275688
        ]
    },
    "phonon": {
        "lowest_freq": -0.0752944474965613,
        "frequency": [
            -0.0752944474965613,
            -0.03576032690644347,
            -0.020215975190965903,
            2.2781112608621794,
            2.5369406262814476,
            3.004502965966276,
            4.41512148006419,
            4.789233686806679,
            5.190926286678664,
            6.110312914944691,
            6.709332182083714,
            6.847838288371153,
            7.384170425002394,
            7.770991310372088,
            8.214097122138366,
            9.047461975348442,
            9.557114376512128,
            9.703466897162524,
            10.19874640065612,
            10.228966134074962,
            10.269356393935466,
            10.47793751872574,
            10.545771965977908,
            11.11199028463833,
            11.636598331097884,
            11.695170912363087,
            11.786539024509665,
            12.221372839201731,
            12.917786204326458,
            13.061170737409036,
            13.07891214856696,
            13.243757533104748,
            13.456023588329321,
            13.540295633724087,
            13.65545008838183,
            14.054486839689563,
            14.110168171482298,
            14.19326378557846,
            14.241155268463524,
            15.043812988748835,
            15.124562861994635,
            15.39042511393945,
            15.922526989614262,
            16.18574547865131,
            16.20608311474209,
            16.27723736328792,
            16.3431692833839,
            16.428367856447412,
            16.4787110286453,
            16.49563215586581,
            16.710448354530406,
            16.87869727699286,
            17.674498650620976,
            18.839578924040637
        ]
    },
    "born_effective_charge": {
        "avg_abs_trace": 1.6277637037037038,
        "tensors": [
            [
                [
                    1.15551,
                    -0.0,
                    -0.0
                ],
                [
                    1e-05,
                    1.04658,
                    0.33545
                ],
                [
                    -3e-05,
                    -0.19424,
                    0.89719
                ]
            ],
            [
                [
                    1.15541,
                    -0.0,
                    -0.0
                ],
                [
                    -1e-05,
                    1.04658,
                    -0.33545
                ],
                [
                    3e-05,
                    0.19424,
                    0.89719
                ]
            ],
            [
                [
                    0.95801,
                    0.33473,
                    -0.0
                ],
                [
                    0.07686,
                    0.91389,
                    -0.0
                ],
                [
                    0.00022,
                    -4e-05,
                    1.14584
                ]
            ],
            [
                [
                    0.95815,
                    0.33467,
                    -0.0
                ],
                [
                    0.077,
                    0.91383,
                    -0.0
                ],
                [
                    -0.00022,
                    4e-05,
                    1.14584
                ]
            ],
            [
                [
                    0.95815,
                    -0.33467,
                    -0.0
                ],
                [
                    -0.07686,
                    0.91389,
                    -0.0
                ],
                [
                    -0.00022,
                    -4e-05,
                    1.14584
                ]
            ],
            [
                [
                    0.95801,
                    -0.33473,
                    -0.0
                ],
                [
                    -0.077,
                    0.91383,
                    -0.0
                ],
                [
                    0.00022,
                    4e-05,
                    1.14584
                ]
            ],
            [
                [
                    1.15551,
                    -0.0,
                    -0.0
                ],
                [
                    1e-05,
                    1.04658,
                    -0.33545
                ],
                [
                    -3e-05,
                    0.19424,
                    0.89719
                ]
            ],
            [
                [
                    1.15541,
                    -0.0,
                    -0.0
                ],
                [
                    -1e-05,
                    1.04658,
                    0.33545
                ],
                [
                    3e-05,
                    -0.19424,
                    0.89719
                ]
            ],
            [
                [
                    3.15176,
                    -0.00021,
                    -0.0
                ],
                [
                    -0.0,
                    3.14544,
                    -0.0
                ],
                [
                    -0.0,
                    4e-05,
                    3.44354
                ]
            ],
            [
                [
                    3.15176,
                    0.00021,
                    -0.0
                ],
                [
                    -0.0,
                    3.14552,
                    -0.0
                ],
                [
                    -0.0,
                    -4e-05,
                    3.44354
                ]
            ],
            [
                [
                    -2.08376,
                    -0.18884,
                    -0.0
                ],
                [
                    -0.35245,
                    -1.6993,
                    -0.0
                ],
                [
                    5e-05,
                    0.00011,
                    -1.54378
                ]
            ],
            [
                [
                    -2.08394,
                    -0.1889,
                    -0.0
                ],
                [
                    -0.35233,
                    -1.69925,
                    -0.0
                ],
                [
                    -5e-05,
                    -0.00011,
                    -1.54378
                ]
            ],
            [
                [
                    -1.60558,
                    -0.00016,
                    -0.00016
                ],
                [
                    -0.0,
                    -1.83384,
                    -0.08139
                ],
                [
                    -0.0,
                    -0.29074,
                    -2.22075
                ]
            ],
            [
                [
                    -1.60558,
                    0.00016,
                    -0.00016
                ],
                [
                    -0.0,
                    -1.83397,
                    0.08125
                ],
                [
                    -0.0,
                    0.29074,
                    -2.22075
                ]
            ],
            [
                [
                    -1.60558,
                    -0.00016,
                    0.00016
                ],
                [
                    -0.0,
                    -1.83384,
                    0.08139
                ],
                [
                    -0.0,
                    0.29062,
                    -2.22129
                ]
            ],
            [
                [
                    -1.60558,
                    0.00016,
                    0.00016
                ],
                [
                    -0.0,
                    -1.83397,
                    -0.08125
                ],
                [
                    -0.0,
                    -0.29062,
                    -2.22129
                ]
            ],
            [
                [
                    -2.08394,
                    0.1889,
                    -0.0
                ],
                [
                    0.35245,
                    -1.6993,
                    -0.0
                ],
                [
                    -5e-05,
                    0.00011,
                    -1.54378
                ]
            ],
            [
                [
                    -2.08376,
                    0.18884,
                    -0.0
                ],
                [
                    0.35233,
                    -1.69925,
                    -0.0
                ],
                [
                    5e-05,
                    -0.00011,
                    -1.54378
                ]
            ]
        ]
    },
    "band_gap": 1.3729999999999998,
    "is_direct": true,
    "formula": "Li4PbO4"
}