{
    "mp_id": "mp-29816",
    "nelements": 3,
    "nsites": 20,
    "elements": [
        "Ag",
        "Hg",
        "O"
    ],
    "structure": {
        "@module": "pymatgen.core.structure",
        "@class": "Structure",
        "charge": null,
        "lattice": {
            "matrix": [
                [
                    6.09919231,
                    0.0,
                    0.0
                ],
                [
                    0.0,
                    6.09919231,
                    0.0
                ],
                [
                    0.0,
                    0.0,
                    8.3560668
                ]
            ],
            "a": 6.09919231,
            "b": 6.09919231,
            "c": 8.3560668,
            "alpha": 90.0,
            "beta": 90.0,
            "gamma": 90.0,
            "volume": 310.8469119177469
        },
        "sites": [
            {
                "species": [
                    {
                        "element": "Ag",
                        "occu": 1
                    }
                ],
                "abc": [
                    0.49976349,
                    0.74269292,
                    0.62848432
                ],
                "xyz": [
                    3.048153635026762,
                    4.5298269463554455,
                    5.251656960672577
                ],
                "label": "Ag",
                "properties": {}
            },
            {
                "species": [
                    {
                        "element": "Ag",
                        "occu": 1
                    }
                ],
                "abc": [
                    0.99976349,
                    0.75730708,
                    0.62151568
                ],
                "xyz": [
                    6.097749790026762,
                    4.618961518644555,
                    5.193426539327424
                ],
                "label": "Ag",
                "properties": {}
            },
            {
                "species": [
                    {
                        "element": "Ag",
                        "occu": 1
                    }
                ],
                "abc": [
                    0.24269292,
                    0.00023651,
                    0.87848432
                ],
                "xyz": [
                    1.4802307913554453,
                    0.0014425199732381,
                    7.340673660672577
                ],
                "label": "Ag",
                "properties": {}
            },
            {
                "species": [
                    {
                        "element": "Ag",
                        "occu": 1
                    }
                ],
                "abc": [
                    0.75730708,
                    0.99976349,
                    0.37848432
                ],
                "xyz": [
                    4.618961518644555,
                    6.097749790026762,
                    3.162640260672576
                ],
                "label": "Ag",
                "properties": {}
            },
            {
                "species": [
                    {
                        "element": "Ag",
                        "occu": 1
                    }
                ],
                "abc": [
                    0.25730708,
                    0.50023651,
                    0.87151568
                ],
                "xyz": [
                    1.569365363644555,
                    3.0510386749732383,
                    7.282443239327424
                ],
                "label": "Ag",
                "properties": {}
            },
            {
                "species": [
                    {
                        "element": "Ag",
                        "occu": 1
                    }
                ],
                "abc": [
                    0.00023651,
                    0.24269292,
                    0.12151568
                ],
                "xyz": [
                    0.0014425199732381,
                    1.4802307913554453,
                    1.015393139327424
                ],
                "label": "Ag",
                "properties": {}
            },
            {
                "species": [
                    {
                        "element": "Ag",
                        "occu": 1
                    }
                ],
                "abc": [
                    0.50023651,
                    0.25730708,
                    0.12848432
                ],
                "xyz": [
                    3.0510386749732383,
                    1.569365363644555,
                    1.0736235606725761
                ],
                "label": "Ag",
                "properties": {}
            },
            {
                "species": [
                    {
                        "element": "Ag",
                        "occu": 1
                    }
                ],
                "abc": [
                    0.74269292,
                    0.49976349,
                    0.37151568
                ],
                "xyz": [
                    4.5298269463554455,
                    3.048153635026762,
                    3.1044098393274244
                ],
                "label": "Ag",
                "properties": {}
            },
            {
                "species": [
                    {
                        "element": "Hg",
                        "occu": 1
                    }
                ],
                "abc": [
                    0.20944177,
                    0.20944177,
                    0.5
                ],
                "xyz": [
                    1.2774256329767888,
                    1.2774256329767888,
                    4.1780334
                ],
                "label": "Hg",
                "properties": {}
            },
            {
                "species": [
                    {
                        "element": "Hg",
                        "occu": 1
                    }
                ],
                "abc": [
                    0.29055823,
                    0.70944177,
                    0.25
                ],
                "xyz": [
                    1.7721705220232111,
                    4.327021787976789,
                    2.0890167
                ],
                "label": "Hg",
                "properties": {}
            },
            {
                "species": [
                    {
                        "element": "Hg",
                        "occu": 1
                    }
                ],
                "abc": [
                    0.70944177,
                    0.29055823,
                    0.75
                ],
                "xyz": [
                    4.327021787976789,
                    1.7721705220232111,
                    6.2670501000000005
                ],
                "label": "Hg",
                "properties": {}
            },
            {
                "species": [
                    {
                        "element": "Hg",
                        "occu": 1
                    }
                ],
                "abc": [
                    0.79055823,
                    0.79055823,
                    0.0
                ],
                "xyz": [
                    4.821766677023212,
                    4.821766677023212,
                    0.0
                ],
                "label": "Hg",
                "properties": {}
            },
            {
                "species": [
                    {
                        "element": "O",
                        "occu": 1
                    }
                ],
                "abc": [
                    0.24831474,
                    0.61616307,
                    0.48500135
                ],
                "xyz": [
                    1.5145193526676495,
                    3.758097058249992,
                    4.052703678690181
                ],
                "label": "O",
                "properties": {}
            },
            {
                "species": [
                    {
                        "element": "O",
                        "occu": 1
                    }
                ],
                "abc": [
                    0.75168526,
                    0.38383693,
                    0.98500135
                ],
                "xyz": [
                    4.584672957332351,
                    2.3410952517500085,
                    8.230737078690181
                ],
                "label": "O",
                "properties": {}
            },
            {
                "species": [
                    {
                        "element": "O",
                        "occu": 1
                    }
                ],
                "abc": [
                    0.61616307,
                    0.24831474,
                    0.51499865
                ],
                "xyz": [
                    3.758097058249992,
                    1.5145193526676495,
                    4.30336312130982
                ],
                "label": "O",
                "properties": {}
            },
            {
                "species": [
                    {
                        "element": "O",
                        "occu": 1
                    }
                ],
                "abc": [
                    0.11616307,
                    0.25168526,
                    0.73500135
                ],
                "xyz": [
                    0.7085009032499917,
                    1.5350768023323509,
                    6.141720378690181
                ],
                "label": "O",
                "properties": {}
            },
            {
                "species": [
                    {
                        "element": "O",
                        "occu": 1
                    }
                ],
                "abc": [
                    0.74831474,
                    0.88383693,
                    0.76499865
                ],
                "xyz": [
                    4.564115507667649,
                    5.390691406750008,
                    6.39237982130982
                ],
                "label": "O",
                "properties": {}
            },
            {
                "species": [
                    {
                        "element": "O",
                        "occu": 1
                    }
                ],
                "abc": [
                    0.38383693,
                    0.75168526,
                    0.01499865
                ],
                "xyz": [
                    2.3410952517500085,
                    4.584672957332351,
                    0.12532972130982
                ],
                "label": "O",
                "properties": {}
            },
            {
                "species": [
                    {
                        "element": "O",
                        "occu": 1
                    }
                ],
                "abc": [
                    0.88383693,
                    0.74831474,
                    0.23500135
                ],
                "xyz": [
                    5.390691406750008,
                    4.564115507667649,
                    1.96368697869018
                ],
                "label": "O",
                "properties": {}
            },
            {
                "species": [
                    {
                        "element": "O",
                        "occu": 1
                    }
                ],
                "abc": [
                    0.25168526,
                    0.11616307,
                    0.26499865
                ],
                "xyz": [
                    1.5350768023323509,
                    0.7085009032499917,
                    2.2143464213098203
                ],
                "label": "O",
                "properties": {}
            }
        ]
    },
    "spacegroup": {
        "source": "spglib",
        "symbol": "P4_32_12",
        "number": 96,
        "point_group": "422",
        "crystal_system": "tetragonal",
        "hall": "P 4nw 2abw"
    },
    "dielectric": {
        "epsilon_ionic": [
            [
                2.45825792,
                6e-08,
                3.3e-07
            ],
            [
                6e-08,
                2.4582577,
                3.4e-07
            ],
            [
                3.3e-07,
                3.4e-07,
                2.0429997
            ]
        ],
        "epsilon_ionic_avg": 2.319838440000001,
        "epsilon_ionic_eig": [
            2.0429996999994606,
            2.458257935300035,
            2.458257684700507
        ],
        "epsilon_electronic": [
            [
                7.3572986,
                0.0,
                0.0
            ],
            [
                -0.0,
                7.3572986,
                -0.0
            ],
            [
                0.0,
                0.0,
                8.49537149
            ]
        ],
        "epsilon_electronic_avg": 7.73665623,
        "epsilon_electronic_eig": [
            7.3572986,
            7.3572986,
            8.49537149
        ]
    },
    "phonon": {
        "lowest_freq": -0.09056318293655152,
        "frequency": [
            -0.09056318293655152,
            -0.02417524889536705,
            -0.02417524889536705,
            0.7240402330510436,
            1.4547709846577768,
            1.4547709846577768,
            1.6214335621103941,
            1.7026585622510737,
            1.73340063858561,
            1.7485212111153166,
            1.7551854808299217,
            1.7551854808299217,
            1.8118534689904806,
            1.9327743112382387,
            1.987776599313879,
            1.987776599313879,
            2.2820661067999466,
            2.306564619171694,
            2.306564619171694,
            2.3485596884853193,
            2.4683844303581814,
            2.5874141628351923,
            2.5874141628351923,
            2.6185002066646756,
            2.644736682431451,
            2.784684664724429,
            2.784684664724429,
            3.0245403088506047,
            3.0973191844637102,
            3.1152918659299464,
            3.1406211313270473,
            3.1406211313270473,
            3.96659879166988,
            4.4624372910507555,
            4.4624372910507555,
            4.724295635261916,
            8.025542799994232,
            8.410988601473635,
            9.239072334620502,
            9.239072334620502,
            9.781762333296808,
            10.336350523196742,
            10.336350523196742,
            10.46307914397113,
            10.781671970424727,
            10.781671970424727,
            11.724891610862839,
            11.794778434780776,
            12.834272605699265,
            12.999589421391674,
            13.030188982077979,
            13.030188982077979,
            14.998699187384046,
            15.805632862894587,
            15.805632862894587,
            16.124573963514752,
            16.35091966335843,
            16.77459970230433,
            16.77459970230433,
            16.844851928544816
        ]
    },
    "born_effective_charge": {
        "avg_abs_trace": 1.4829900000000003,
        "tensors": [
            [
                [
                    1.14865,
                    0.3494,
                    0.47376
                ],
                [
                    0.24303,
                    0.70619,
                    0.05685
                ],
                [
                    0.62064,
                    0.27686,
                    1.02133
                ]
            ],
            [
                [
                    1.14865,
                    -0.3494,
                    -0.47376
                ],
                [
                    -0.24297,
                    0.70626,
                    0.05635
                ],
                [
                    -0.6204,
                    0.2767,
                    1.02084
                ]
            ],
            [
                [
                    0.7062,
                    -0.24304,
                    0.05686
                ],
                [
                    -0.34931,
                    1.14853,
                    -0.4737
                ],
                [
                    0.27686,
                    -0.62064,
                    1.02133
                ]
            ],
            [
                [
                    0.70626,
                    -0.24298,
                    -0.05634
                ],
                [
                    -0.34941,
                    1.14865,
                    0.47375
                ],
                [
                    -0.27686,
                    0.62064,
                    1.02133
                ]
            ],
            [
                [
                    0.70626,
                    0.24298,
                    0.05634
                ],
                [
                    0.34931,
                    1.14853,
                    0.4737
                ],
                [
                    0.2767,
                    0.6204,
                    1.02084
                ]
            ],
            [
                [
                    1.14852,
                    -0.34931,
                    0.47369
                ],
                [
                    -0.24303,
                    0.70619,
                    -0.05685
                ],
                [
                    0.6204,
                    -0.2767,
                    1.02084
                ]
            ],
            [
                [
                    1.14852,
                    0.34931,
                    -0.47369
                ],
                [
                    0.24297,
                    0.70626,
                    -0.05635
                ],
                [
                    -0.62064,
                    -0.27686,
                    1.02133
                ]
            ],
            [
                [
                    0.7062,
                    0.24304,
                    -0.05686
                ],
                [
                    0.34941,
                    1.14865,
                    -0.47375
                ],
                [
                    -0.2767,
                    -0.6204,
                    1.02084
                ]
            ],
            [
                [
                    1.37543,
                    0.08219,
                    -0.18308
                ],
                [
                    0.08219,
                    1.37543,
                    0.18309
                ],
                [
                    -0.33136,
                    0.33123,
                    2.6203
                ]
            ],
            [
                [
                    1.37489,
                    -0.08206,
                    -0.18367
                ],
                [
                    -0.08219,
                    1.37543,
                    -0.18309
                ],
                [
                    -0.33123,
                    -0.33136,
                    2.6203
                ]
            ],
            [
                [
                    1.37543,
                    -0.08219,
                    0.18308
                ],
                [
                    -0.08206,
                    1.3749,
                    0.18367
                ],
                [
                    0.33123,
                    0.33136,
                    2.6203
                ]
            ],
            [
                [
                    1.37489,
                    0.08206,
                    0.18367
                ],
                [
                    0.08206,
                    1.3749,
                    -0.18367
                ],
                [
                    0.33136,
                    -0.33123,
                    2.6203
                ]
            ],
            [
                [
                    -1.63125,
                    0.02644,
                    0.13211
                ],
                [
                    0.10873,
                    -1.59905,
                    0.06359
                ],
                [
                    0.01044,
                    0.17235,
                    -2.33104
                ]
            ],
            [
                [
                    -1.63153,
                    0.02645,
                    -0.12941
                ],
                [
                    0.10856,
                    -1.59812,
                    -0.06354
                ],
                [
                    -0.01044,
                    -0.17235,
                    -2.33104
                ]
            ],
            [
                [
                    -1.59905,
                    0.10872,
                    -0.06361
                ],
                [
                    0.02645,
                    -1.63125,
                    -0.13218
                ],
                [
                    -0.17209,
                    -0.00976,
                    -2.33143
                ]
            ],
            [
                [
                    -1.59905,
                    -0.10872,
                    0.06361
                ],
                [
                    -0.02644,
                    -1.63154,
                    -0.12935
                ],
                [
                    0.17235,
                    -0.01044,
                    -2.33104
                ]
            ],
            [
                [
                    -1.63125,
                    -0.02644,
                    -0.13211
                ],
                [
                    -0.10856,
                    -1.59812,
                    0.06354
                ],
                [
                    -0.00976,
                    0.17209,
                    -2.33143
                ]
            ],
            [
                [
                    -1.59812,
                    0.10856,
                    0.06353
                ],
                [
                    0.02644,
                    -1.63154,
                    0.12935
                ],
                [
                    0.17209,
                    0.00976,
                    -2.33143
                ]
            ],
            [
                [
                    -1.59812,
                    -0.10856,
                    -0.06353
                ],
                [
                    -0.02645,
                    -1.63125,
                    0.13218
                ],
                [
                    -0.17235,
                    0.01044,
                    -2.33104
                ]
            ],
            [
                [
                    -1.63153,
                    -0.02645,
                    0.12941
                ],
                [
                    -0.10873,
                    -1.59905,
                    -0.06359
                ],
                [
                    0.00976,
                    -0.17209,
                    -2.33143
                ]
            ]
        ]
    },
    "band_gap": 0.8014000000000001,
    "is_direct": true,
    "formula": "Ag2HgO2"
}