{
    "mp_id": "mp-28251",
    "nelements": 3,
    "nsites": 26,
    "elements": [
        "O",
        "Ta",
        "Zn"
    ],
    "structure": {
        "@module": "pymatgen.core.structure",
        "@class": "Structure",
        "charge": null,
        "lattice": {
            "matrix": [
                [
                    4.37631641,
                    -4.19795642,
                    0.00023045
                ],
                [
                    4.37631641,
                    4.19795642,
                    0.00023045
                ],
                [
                    -4.26327054,
                    0.0,
                    8.48910785
                ]
            ],
            "a": 6.0642380789149195,
            "b": 6.0642380789149195,
            "c": 9.499496185912362,
            "alpha": 108.89525557787904,
            "beta": 108.89525557787904,
            "gamma": 87.61663721671997,
            "volume": 311.924991285098
        },
        "sites": [
            {
                "species": [
                    {
                        "element": "Ta",
                        "occu": 1
                    }
                ],
                "abc": [
                    0.22054214,
                    0.93508189,
                    0.62604233
                ],
                "xyz": [
                    2.3883885839973744,
                    2.9996067308576944,
                    5.314807171593004
                ],
                "label": "Ta",
                "properties": {}
            },
            {
                "species": [
                    {
                        "element": "Ta",
                        "occu": 1
                    }
                ],
                "abc": [
                    0.06491811,
                    0.77945786,
                    0.87395767
                ],
                "xyz": [
                    -0.030661573997373903,
                    2.9996067308576944,
                    7.419315503406996
                ],
                "label": "Ta",
                "properties": {}
            },
            {
                "species": [
                    {
                        "element": "Ta",
                        "occu": 1
                    }
                ],
                "abc": [
                    0.77945786,
                    0.06491811,
                    0.37395767
                ],
                "xyz": [
                    2.100973696002626,
                    -2.9996067308576944,
                    3.174761578406996
                ],
                "label": "Ta",
                "properties": {}
            },
            {
                "species": [
                    {
                        "element": "Ta",
                        "occu": 1
                    }
                ],
                "abc": [
                    0.93508189,
                    0.22054214,
                    0.12604233
                ],
                "xyz": [
                    4.520023853997374,
                    -2.9996067308576944,
                    1.070253246593004
                ],
                "label": "Ta",
                "properties": {}
            },
            {
                "species": [
                    {
                        "element": "Zn",
                        "occu": 1
                    }
                ],
                "abc": [
                    0.76187956,
                    0.23812044,
                    0.75
                ],
                "xyz": [
                    1.1788635050000007,
                    -2.19871796033755,
                    6.3670613375
                ],
                "label": "Zn",
                "properties": {}
            },
            {
                "species": [
                    {
                        "element": "Zn",
                        "occu": 1
                    }
                ],
                "abc": [
                    0.23812044,
                    0.76187956,
                    0.25
                ],
                "xyz": [
                    3.310498775,
                    2.19871796033755,
                    2.1225074125
                ],
                "label": "Zn",
                "properties": {}
            },
            {
                "species": [
                    {
                        "element": "Zn",
                        "occu": 1
                    }
                ],
                "abc": [
                    0.36058721,
                    0.32799076,
                    0.00506739
                ],
                "xyz": [
                    2.9918314151737975,
                    -0.136838476546709,
                    0.043176303021198
                ],
                "label": "Zn",
                "properties": {}
            },
            {
                "species": [
                    {
                        "element": "Zn",
                        "occu": 1
                    }
                ],
                "abc": [
                    0.67200924,
                    0.63941279,
                    0.49493261
                ],
                "xyz": [
                    3.629166134826203,
                    -0.13683847654670878,
                    4.201838521978802
                ],
                "label": "Zn",
                "properties": {}
            },
            {
                "species": [
                    {
                        "element": "Zn",
                        "occu": 1
                    }
                ],
                "abc": [
                    0.63941279,
                    0.67200924,
                    0.99493261
                ],
                "xyz": [
                    1.4975308648262038,
                    0.13683847654670878,
                    8.446392446978802
                ],
                "label": "Zn",
                "properties": {}
            },
            {
                "species": [
                    {
                        "element": "Zn",
                        "occu": 1
                    }
                ],
                "abc": [
                    0.32799076,
                    0.36058721,
                    0.50506739
                ],
                "xyz": [
                    0.8601961451737976,
                    0.136838476546709,
                    4.287730228021198
                ],
                "label": "Zn",
                "properties": {}
            },
            {
                "species": [
                    {
                        "element": "O",
                        "occu": 1
                    }
                ],
                "abc": [
                    0.56938605,
                    0.81932863,
                    0.35652831
                ],
                "xyz": [
                    4.557478202192911,
                    1.0492480583423633,
                    3.02692730446624
                ],
                "label": "O",
                "properties": {}
            },
            {
                "species": [
                    {
                        "element": "O",
                        "occu": 1
                    }
                ],
                "abc": [
                    0.18067137,
                    0.43061395,
                    0.14347169
                ],
                "xyz": [
                    2.0635193478070892,
                    1.0492480583423638,
                    1.2180875205337607
                ],
                "label": "O",
                "properties": {}
            },
            {
                "species": [
                    {
                        "element": "O",
                        "occu": 1
                    }
                ],
                "abc": [
                    0.43061395,
                    0.18067137,
                    0.64347169
                ],
                "xyz": [
                    -0.06811592219291107,
                    -1.0492480583423638,
                    5.462641445533761
                ],
                "label": "O",
                "properties": {}
            },
            {
                "species": [
                    {
                        "element": "O",
                        "occu": 1
                    }
                ],
                "abc": [
                    0.81932863,
                    0.56938605,
                    0.85652831
                ],
                "xyz": [
                    2.425842932192912,
                    -1.0492480583423633,
                    7.271481229466239
                ],
                "label": "O",
                "properties": {}
            },
            {
                "species": [
                    {
                        "element": "O",
                        "occu": 1
                    }
                ],
                "abc": [
                    0.42266226,
                    0.68751671,
                    0.59252949
                ],
                "xyz": [
                    2.332380925649674,
                    1.111847438743069,
                    5.030302585659133
                ],
                "label": "O",
                "properties": {}
            },
            {
                "species": [
                    {
                        "element": "O",
                        "occu": 1
                    }
                ],
                "abc": [
                    0.31248329,
                    0.57733774,
                    0.90747051
                ],
                "xyz": [
                    0.025346084350327924,
                    1.1118474387430688,
                    7.7038200893408675
                ],
                "label": "O",
                "properties": {}
            },
            {
                "species": [
                    {
                        "element": "O",
                        "occu": 1
                    }
                ],
                "abc": [
                    0.57733774,
                    0.31248329,
                    0.40747051
                ],
                "xyz": [
                    2.156981354350328,
                    -1.1118474387430688,
                    3.459266164340867
                ],
                "label": "O",
                "properties": {}
            },
            {
                "species": [
                    {
                        "element": "O",
                        "occu": 1
                    }
                ],
                "abc": [
                    0.68751671,
                    0.42266226,
                    0.09252949
                ],
                "xyz": [
                    4.464016195649673,
                    -1.111847438743069,
                    0.7857486606591331
                ],
                "label": "O",
                "properties": {}
            },
            {
                "species": [
                    {
                        "element": "O",
                        "occu": 1
                    }
                ],
                "abc": [
                    0.28888533,
                    0.01989048,
                    0.8589166
                ],
                "xyz": [
                    -2.3104931927829218,
                    -1.129228657504437,
                    7.291506808940724
                ],
                "label": "O",
                "properties": {}
            },
            {
                "species": [
                    {
                        "element": "O",
                        "occu": 1
                    }
                ],
                "abc": [
                    0.98010952,
                    0.71111467,
                    0.6410834
                ],
                "xyz": [
                    4.668220202782923,
                    -1.1292286575044366,
                    5.442615866059275
                ],
                "label": "O",
                "properties": {}
            },
            {
                "species": [
                    {
                        "element": "O",
                        "occu": 1
                    }
                ],
                "abc": [
                    0.14366048,
                    0.93860768,
                    0.10772859
                ],
                "xyz": [
                    4.277071784565767,
                    3.337153701801024,
                    0.9147690277359035
                ],
                "label": "O",
                "properties": {}
            },
            {
                "species": [
                    {
                        "element": "O",
                        "occu": 1
                    }
                ],
                "abc": [
                    0.06139232,
                    0.85633952,
                    0.39227141
                ],
                "xyz": [
                    2.343925765434233,
                    3.3371537018010238,
                    3.3302457972640966
                ],
                "label": "O",
                "properties": {}
            },
            {
                "species": [
                    {
                        "element": "O",
                        "occu": 1
                    }
                ],
                "abc": [
                    0.85633952,
                    0.06139232,
                    0.89227141
                ],
                "xyz": [
                    0.2122904954342335,
                    -3.3371537018010238,
                    7.574799722264096
                ],
                "label": "O",
                "properties": {}
            },
            {
                "species": [
                    {
                        "element": "O",
                        "occu": 1
                    }
                ],
                "abc": [
                    0.93860768,
                    0.14366048,
                    0.60772859
                ],
                "xyz": [
                    2.1454365145657674,
                    -3.337153701801024,
                    5.159322952735903
                ],
                "label": "O",
                "properties": {}
            },
            {
                "species": [
                    {
                        "element": "O",
                        "occu": 1
                    }
                ],
                "abc": [
                    0.01989048,
                    0.28888533,
                    0.3589166
                ],
                "xyz": [
                    -0.17885792278292145,
                    1.129228657504437,
                    3.0469528839407243
                ],
                "label": "O",
                "properties": {}
            },
            {
                "species": [
                    {
                        "element": "O",
                        "occu": 1
                    }
                ],
                "abc": [
                    0.71111467,
                    0.98010952,
                    0.1410834
                ],
                "xyz": [
                    6.799855472782922,
                    1.1292286575044366,
                    1.1980619410592754
                ],
                "label": "O",
                "properties": {}
            }
        ]
    },
    "spacegroup": {
        "source": "spglib",
        "symbol": "C2/c",
        "number": 15,
        "point_group": "2/m",
        "crystal_system": "monoclinic",
        "hall": "-C 2yc"
    },
    "dielectric": {
        "epsilon_ionic": [
            [
                8.59658387,
                0.0,
                -2.65032473
            ],
            [
                0.0,
                8.60226352,
                1e-08
            ],
            [
                -2.65032473,
                1e-08,
                8.29488466
            ]
        ],
        "epsilon_ionic_avg": 8.497910683333332,
        "epsilon_ionic_eig": [
            5.7911200222562,
            11.100348507743798,
            8.60226352
        ],
        "epsilon_electronic": [
            [
                4.31976564,
                0.0,
                -0.19570063
            ],
            [
                0.0,
                4.31289257,
                0.0
            ],
            [
                -0.19569964,
                0.0,
                4.17888492
            ]
        ],
        "epsilon_electronic_avg": 4.270514376666667,
        "epsilon_electronic_eig": [
            4.457316595096815,
            4.041333964903185,
            4.31289257
        ]
    },
    "phonon": {
        "lowest_freq": -0.07915589054694491,
        "frequency": [
            -0.07915589054694491,
            -0.05734245669350674,
            -0.048066370850488115,
            2.152819838402131,
            2.334570212203654,
            2.3582749272737367,
            2.6533005771824403,
            2.9986679985993954,
            3.060468462053489,
            3.3054233367344836,
            3.414076336988968,
            3.462358023388125,
            3.6764715791126825,
            3.722481846699085,
            3.9261083310304925,
            4.122355050309916,
            4.403404808899938,
            4.509599436998709,
            4.535484426881065,
            4.749522855592247,
            5.049518963014928,
            5.416395379087265,
            5.976569071336988,
            6.420272733140075,
            6.499795801130771,
            6.635038676543706,
            6.702750037803333,
            7.0773846764290544,
            7.170739328006096,
            7.380896405009705,
            7.506740474943054,
            7.532735901462428,
            7.565165443456417,
            7.868267500813245,
            8.649237041716093,
            8.65564805069218,
            8.717926258100665,
            8.772344159247929,
            9.139037182884312,
            9.173558725842913,
            9.210078760136108,
            9.282960974704178,
            9.781704442217379,
            10.369509056613404,
            10.6967534711544,
            11.148939099384929,
            11.847008883274281,
            12.567004129080308,
            12.742872117678127,
            12.984064388466209,
            13.409341495990068,
            14.106545647895052,
            14.246869969548763,
            14.514124744736058,
            14.658506669136244,
            14.995900815412833,
            15.019697495948119,
            15.03603360676665,
            15.420909350568591,
            15.423717264350602,
            15.834843645758358,
            16.111187126863285,
            16.55147267931039,
            17.49961624604944,
            17.770167189709813,
            18.269077386090203,
            18.591290481448766,
            18.66920998207563,
            19.124939923900133,
            19.481110896118725,
            19.765344094384485,
            20.489700058256293,
            20.827417935227807,
            20.887317058834572,
            22.084420687045206,
            22.803406039124397,
            23.512327899495343,
            23.76882989461022
        ]
    },
    "born_effective_charge": {
        "avg_abs_trace": 2.8443689743589746,
        "tensors": [
            [
                [
                    5.84141,
                    -0.12269,
                    -0.84325
                ],
                [
                    -0.25696,
                    5.79384,
                    -0.30066
                ],
                [
                    -0.88776,
                    -0.27745,
                    5.70661
                ]
            ],
            [
                [
                    5.84141,
                    0.12271,
                    -0.84317
                ],
                [
                    0.25696,
                    5.79384,
                    0.30066
                ],
                [
                    -0.8876,
                    0.27728,
                    5.70648
                ]
            ],
            [
                [
                    5.84141,
                    -0.12271,
                    -0.84317
                ],
                [
                    -0.25676,
                    5.79357,
                    -0.30056
                ],
                [
                    -0.8876,
                    -0.27728,
                    5.70648
                ]
            ],
            [
                [
                    5.84141,
                    0.12269,
                    -0.84325
                ],
                [
                    0.25676,
                    5.79357,
                    0.30056
                ],
                [
                    -0.88776,
                    0.27745,
                    5.70661
                ]
            ],
            [
                [
                    2.40914,
                    -7e-05,
                    0.27535
                ],
                [
                    -0.0,
                    2.23336,
                    0.0
                ],
                [
                    -0.10668,
                    -4e-05,
                    2.40282
                ]
            ],
            [
                [
                    2.40914,
                    7e-05,
                    0.27535
                ],
                [
                    -0.0,
                    2.23334,
                    0.0
                ],
                [
                    -0.10668,
                    4e-05,
                    2.40282
                ]
            ],
            [
                [
                    2.39348,
                    -0.11168,
                    -0.00253
                ],
                [
                    -0.08677,
                    2.44803,
                    -0.20354
                ],
                [
                    0.225,
                    0.17405,
                    2.02664
                ]
            ],
            [
                [
                    2.3936,
                    0.11155,
                    -0.00252
                ],
                [
                    0.08677,
                    2.44803,
                    0.20354
                ],
                [
                    0.22507,
                    -0.17413,
                    2.02664
                ]
            ],
            [
                [
                    2.3936,
                    -0.11155,
                    -0.00252
                ],
                [
                    -0.08689,
                    2.44816,
                    -0.2036
                ],
                [
                    0.22507,
                    0.17413,
                    2.02664
                ]
            ],
            [
                [
                    2.39348,
                    0.11168,
                    -0.00253
                ],
                [
                    0.08689,
                    2.44816,
                    0.2036
                ],
                [
                    0.225,
                    -0.17405,
                    2.02664
                ]
            ],
            [
                [
                    -3.73284,
                    -0.08055,
                    -0.16409
                ],
                [
                    0.15234,
                    -1.51051,
                    0.29329
                ],
                [
                    -0.08297,
                    0.43473,
                    -1.46251
                ]
            ],
            [
                [
                    -3.73283,
                    0.0806,
                    -0.16404
                ],
                [
                    -0.15234,
                    -1.51051,
                    -0.29329
                ],
                [
                    -0.08295,
                    -0.43478,
                    -1.46251
                ]
            ],
            [
                [
                    -3.73283,
                    -0.0806,
                    -0.16404
                ],
                [
                    0.15234,
                    -1.51057,
                    0.29324
                ],
                [
                    -0.08295,
                    0.43478,
                    -1.46251
                ]
            ],
            [
                [
                    -3.73284,
                    0.08055,
                    -0.16409
                ],
                [
                    -0.15234,
                    -1.51057,
                    -0.29324
                ],
                [
                    -0.08297,
                    -0.43473,
                    -1.46251
                ]
            ],
            [
                [
                    -1.67547,
                    0.06602,
                    0.06789
                ],
                [
                    -0.09815,
                    -3.88893,
                    -0.81715
                ],
                [
                    -0.05015,
                    -0.60605,
                    -1.30383
                ]
            ],
            [
                [
                    -1.6754,
                    -0.06617,
                    0.06771
                ],
                [
                    0.09815,
                    -3.88893,
                    0.81715
                ],
                [
                    -0.05018,
                    0.60601,
                    -1.30396
                ]
            ],
            [
                [
                    -1.6754,
                    0.06617,
                    0.06771
                ],
                [
                    -0.09828,
                    -3.88863,
                    -0.81739
                ],
                [
                    -0.05018,
                    -0.60601,
                    -1.30396
                ]
            ],
            [
                [
                    -1.67547,
                    -0.06602,
                    0.06789
                ],
                [
                    0.09828,
                    -3.88863,
                    0.81739
                ],
                [
                    -0.05015,
                    0.60605,
                    -1.30383
                ]
            ],
            [
                [
                    -2.76271,
                    -0.16804,
                    0.51029
                ],
                [
                    -0.09482,
                    -1.20544,
                    -0.24904
                ],
                [
                    0.58829,
                    -0.31412,
                    -3.16325
                ]
            ],
            [
                [
                    -2.76268,
                    0.16815,
                    0.5104
                ],
                [
                    0.09482,
                    -1.20544,
                    0.24904
                ],
                [
                    0.58833,
                    0.31419,
                    -3.16347
                ]
            ],
            [
                [
                    -1.26861,
                    -0.25293,
                    0.29398
                ],
                [
                    -0.36296,
                    -2.75388,
                    -0.43732
                ],
                [
                    0.26071,
                    -0.34965,
                    -3.00476
                ]
            ],
            [
                [
                    -1.26851,
                    0.25306,
                    0.29398
                ],
                [
                    0.36296,
                    -2.75388,
                    0.43732
                ],
                [
                    0.26089,
                    0.34955,
                    -3.0049
                ]
            ],
            [
                [
                    -1.26851,
                    -0.25306,
                    0.29398
                ],
                [
                    -0.3631,
                    -2.75368,
                    -0.43743
                ],
                [
                    0.26089,
                    -0.34955,
                    -3.0049
                ]
            ],
            [
                [
                    -1.26861,
                    0.25293,
                    0.29398
                ],
                [
                    0.3631,
                    -2.75368,
                    0.43743
                ],
                [
                    0.26071,
                    0.34965,
                    -3.00476
                ]
            ],
            [
                [
                    -2.76271,
                    0.16804,
                    0.51029
                ],
                [
                    0.0947,
                    -1.20533,
                    0.24924
                ],
                [
                    0.58829,
                    0.31412,
                    -3.16325
                ]
            ],
            [
                [
                    -2.76268,
                    -0.16815,
                    0.5104
                ],
                [
                    -0.0947,
                    -1.20533,
                    -0.24924
                ],
                [
                    0.58833,
                    -0.31419,
                    -3.16347
                ]
            ]
        ]
    },
    "band_gap": 3.9889,
    "is_direct": false,
    "formula": "Ta2Zn3O8"
}