{
    "mp_id": "mp-25279",
    "nelements": 2,
    "nsites": 14,
    "elements": [
        "O",
        "V"
    ],
    "structure": {
        "@module": "pymatgen.core.structure",
        "@class": "Structure",
        "charge": null,
        "lattice": {
            "matrix": [
                [
                    3.5996172,
                    0.0,
                    0.0
                ],
                [
                    0.0,
                    11.54473383,
                    0.0
                ],
                [
                    0.0,
                    0.0,
                    4.25148635
                ]
            ],
            "a": 3.5996172,
            "b": 11.54473383,
            "c": 4.25148635,
            "alpha": 90.0,
            "beta": 90.0,
            "gamma": 90.0,
            "volume": 176.6774131573312
        },
        "sites": [
            {
                "species": [
                    {
                        "element": "V",
                        "occu": 1
                    }
                ],
                "abc": [
                    0.0,
                    0.85010218,
                    0.89338105
                ],
                "xyz": [
                    0.0,
                    9.81420339640275,
                    3.798197339423668
                ],
                "label": "V",
                "properties": {}
            },
            {
                "species": [
                    {
                        "element": "V",
                        "occu": 1
                    }
                ],
                "abc": [
                    0.5,
                    0.35010218,
                    0.10661895
                ],
                "xyz": [
                    1.7998086,
                    4.04183648140275,
                    0.4532890105763326
                ],
                "label": "V",
                "properties": {}
            },
            {
                "species": [
                    {
                        "element": "V",
                        "occu": 1
                    }
                ],
                "abc": [
                    0.5,
                    0.64989782,
                    0.10661895
                ],
                "xyz": [
                    1.7998086,
                    7.5028973485972505,
                    0.4532890105763326
                ],
                "label": "V",
                "properties": {}
            },
            {
                "species": [
                    {
                        "element": "V",
                        "occu": 1
                    }
                ],
                "abc": [
                    0.0,
                    0.14989782,
                    0.89338105
                ],
                "xyz": [
                    0.0,
                    1.7305304335972505,
                    3.798197339423668
                ],
                "label": "V",
                "properties": {}
            },
            {
                "species": [
                    {
                        "element": "O",
                        "occu": 1
                    }
                ],
                "abc": [
                    0.5,
                    0.64748851,
                    0.48359594
                ],
                "xyz": [
                    1.7998086,
                    7.475082505933293,
                    2.056001537825419
                ],
                "label": "O",
                "properties": {}
            },
            {
                "species": [
                    {
                        "element": "O",
                        "occu": 1
                    }
                ],
                "abc": [
                    0.0,
                    0.14748851,
                    0.51640406
                ],
                "xyz": [
                    0.0,
                    1.7027155909332932,
                    2.1954848121745814
                ],
                "label": "O",
                "properties": {}
            },
            {
                "species": [
                    {
                        "element": "O",
                        "occu": 1
                    }
                ],
                "abc": [
                    0.0,
                    0.85251149,
                    0.51640406
                ],
                "xyz": [
                    0.0,
                    9.842018239066707,
                    2.1954848121745814
                ],
                "label": "O",
                "properties": {}
            },
            {
                "species": [
                    {
                        "element": "O",
                        "occu": 1
                    }
                ],
                "abc": [
                    0.5,
                    0.35251149,
                    0.48359594
                ],
                "xyz": [
                    1.7998086,
                    4.069651324066706,
                    2.056001537825419
                ],
                "label": "O",
                "properties": {}
            },
            {
                "species": [
                    {
                        "element": "O",
                        "occu": 1
                    }
                ],
                "abc": [
                    0.5,
                    0.18107501,
                    0.99656051
                ],
                "xyz": [
                    1.7998086,
                    2.0904627937145883,
                    4.236863405214039
                ],
                "label": "O",
                "properties": {}
            },
            {
                "species": [
                    {
                        "element": "O",
                        "occu": 1
                    }
                ],
                "abc": [
                    0.5,
                    0.81892499,
                    0.99656051
                ],
                "xyz": [
                    1.7998086,
                    9.454271036285412,
                    4.236863405214039
                ],
                "label": "O",
                "properties": {}
            },
            {
                "species": [
                    {
                        "element": "O",
                        "occu": 1
                    }
                ],
                "abc": [
                    0.0,
                    0.68107501,
                    0.00343949
                ],
                "xyz": [
                    0.0,
                    7.862829708714589,
                    0.014622944785961501
                ],
                "label": "O",
                "properties": {}
            },
            {
                "species": [
                    {
                        "element": "O",
                        "occu": 1
                    }
                ],
                "abc": [
                    0.0,
                    0.31892499,
                    0.00343949
                ],
                "xyz": [
                    0.0,
                    3.681904121285412,
                    0.014622944785961501
                ],
                "label": "O",
                "properties": {}
            },
            {
                "species": [
                    {
                        "element": "O",
                        "occu": 1
                    }
                ],
                "abc": [
                    0.0,
                    0.0,
                    0.99646818
                ],
                "xyz": [
                    0.0,
                    0.0,
                    4.236470865479344
                ],
                "label": "O",
                "properties": {}
            },
            {
                "species": [
                    {
                        "element": "O",
                        "occu": 1
                    }
                ],
                "abc": [
                    0.5,
                    0.5,
                    0.00353182
                ],
                "xyz": [
                    1.7998086,
                    5.772366915,
                    0.015015484520657003
                ],
                "label": "O",
                "properties": {}
            }
        ]
    },
    "spacegroup": {
        "source": "spglib",
        "symbol": "Pmmn",
        "number": 59,
        "point_group": "mmm",
        "crystal_system": "orthorhombic",
        "hall": "P 2 2ab -1ab"
    },
    "dielectric": {
        "epsilon_ionic": [
            [
                14.95447765,
                0.0,
                -2.4e-07
            ],
            [
                0.0,
                19.98528263,
                7e-08
            ],
            [
                -2.4e-07,
                7e-08,
                1.31615599
            ]
        ],
        "epsilon_ionic_avg": 12.085305423333333,
        "epsilon_ionic_eig": [
            14.954477650000008,
            1.3161559899999953,
            19.98528263
        ],
        "epsilon_electronic": [
            [
                6.13897707,
                0.0,
                0.0
            ],
            [
                0.0,
                6.83887474,
                0.0
            ],
            [
                0.0,
                0.0,
                4.26457688
            ]
        ],
        "epsilon_electronic_avg": 5.74747623,
        "epsilon_electronic_eig": [
            6.13897707,
            6.83887474,
            4.26457688
        ]
    },
    "phonon": {
        "lowest_freq": -0.05324771440858681,
        "frequency": [
            -0.05324771440858681,
            -0.051157032596531246,
            -0.027128690851139715,
            2.3008320225022394,
            2.393055063952803,
            3.252530046794782,
            4.461387782244909,
            4.511901032414672,
            4.715841957932987,
            4.7272574823853475,
            5.950187416549494,
            6.103215592515716,
            6.62254131920186,
            6.96384545285683,
            8.111783195679193,
            8.208908840942422,
            8.574646465653306,
            8.650912679722419,
            8.757245314844425,
            8.925950563843049,
            9.044458820612713,
            9.136086199940433,
            10.352748525199598,
            10.44799326470724,
            10.590680096217879,
            11.550107466500473,
            12.199294322510811,
            13.426345490127176,
            14.604650776230168,
            14.686222308111036,
            14.818513329270345,
            14.908749594658582,
            15.263425883803293,
            18.88557519717755,
            20.48948547330019,
            20.514786000308277,
            23.160904272617888,
            28.79157306227495,
            29.237138921581543,
            29.35359897711186,
            29.738508630730227,
            29.812913581109274
        ]
    },
    "born_effective_charge": {
        "avg_abs_trace": 3.2317469047619047,
        "tensors": [
            [
                [
                    6.35477,
                    -0.0021,
                    0.00198
                ],
                [
                    0.0,
                    7.01615,
                    0.51276
                ],
                [
                    0.0,
                    0.10482,
                    3.59669
                ]
            ],
            [
                [
                    6.35477,
                    -0.0021,
                    -0.00198
                ],
                [
                    0.0,
                    7.01615,
                    -0.51276
                ],
                [
                    0.0,
                    -0.10418,
                    3.59486
                ]
            ],
            [
                [
                    6.35477,
                    0.0021,
                    -0.00198
                ],
                [
                    0.0,
                    7.0161,
                    0.51285
                ],
                [
                    0.0,
                    0.10418,
                    3.59486
                ]
            ],
            [
                [
                    6.35477,
                    0.0021,
                    0.00198
                ],
                [
                    0.0,
                    7.0161,
                    -0.51285
                ],
                [
                    0.0,
                    -0.10482,
                    3.59669
                ]
            ],
            [
                [
                    -0.54339,
                    -0.00043,
                    0.00063
                ],
                [
                    0.0,
                    -0.57238,
                    -0.2213
                ],
                [
                    0.0,
                    -0.08094,
                    -2.39366
                ]
            ],
            [
                [
                    -0.54339,
                    -0.00043,
                    -0.00063
                ],
                [
                    0.0,
                    -0.57238,
                    0.2213
                ],
                [
                    -0.0,
                    0.08152,
                    -2.39267
                ]
            ],
            [
                [
                    -0.54339,
                    0.00043,
                    -0.00063
                ],
                [
                    0.0,
                    -0.57251,
                    -0.2214
                ],
                [
                    0.0,
                    -0.08152,
                    -2.39267
                ]
            ],
            [
                [
                    -0.54339,
                    0.00043,
                    0.00063
                ],
                [
                    0.0,
                    -0.57251,
                    0.2214
                ],
                [
                    0.0,
                    0.08094,
                    -2.39366
                ]
            ],
            [
                [
                    -5.37425,
                    -0.00156,
                    -0.00202
                ],
                [
                    0.0,
                    -2.68612,
                    -0.67951
                ],
                [
                    -0.0,
                    -0.28707,
                    -0.82505
                ]
            ],
            [
                [
                    -5.37425,
                    0.00156,
                    -0.00202
                ],
                [
                    0.0,
                    -2.68603,
                    0.67949
                ],
                [
                    -0.0,
                    0.28707,
                    -0.82505
                ]
            ],
            [
                [
                    -5.37425,
                    -0.00156,
                    0.00202
                ],
                [
                    0.0,
                    -2.68612,
                    0.67951
                ],
                [
                    -0.0,
                    0.28676,
                    -0.82535
                ]
            ],
            [
                [
                    -5.37425,
                    0.00156,
                    0.00202
                ],
                [
                    0.0,
                    -2.68603,
                    -0.67949
                ],
                [
                    -0.0,
                    -0.28676,
                    -0.82535
                ]
            ],
            [
                [
                    -0.87426,
                    -0.0,
                    0.00012
                ],
                [
                    0.0,
                    -7.51521,
                    0.00024
                ],
                [
                    -0.0,
                    0.0,
                    -0.7547
                ]
            ],
            [
                [
                    -0.87426,
                    -0.0,
                    -0.00012
                ],
                [
                    0.0,
                    -7.51521,
                    -0.00024
                ],
                [
                    -0.0,
                    0.0,
                    -0.75495
                ]
            ]
        ]
    },
    "band_gap": 1.9421,
    "is_direct": false,
    "formula": "V2O5"
}