{
    "mp_id": "mp-20944",
    "nelements": 3,
    "nsites": 14,
    "elements": [
        "O",
        "Pb",
        "Sr"
    ],
    "structure": {
        "@module": "pymatgen.core.structure",
        "@class": "Structure",
        "charge": null,
        "lattice": {
            "matrix": [
                [
                    6.15460743,
                    0.0,
                    0.0
                ],
                [
                    0.0,
                    10.1325752,
                    0.0
                ],
                [
                    0.0,
                    0.0,
                    3.49703244
                ]
            ],
            "a": 6.15460743,
            "b": 10.1325752,
            "c": 3.49703244,
            "alpha": 90.0,
            "beta": 90.0,
            "gamma": 90.0,
            "volume": 218.0820160945187
        },
        "sites": [
            {
                "species": [
                    {
                        "element": "Sr",
                        "occu": 1
                    }
                ],
                "abc": [
                    0.4258601,
                    0.81891176,
                    0.5
                ],
                "xyz": [
                    2.6210017356005433,
                    8.297684990364353,
                    1.74851622
                ],
                "label": "Sr",
                "properties": {}
            },
            {
                "species": [
                    {
                        "element": "Sr",
                        "occu": 1
                    }
                ],
                "abc": [
                    0.5741399,
                    0.18108824,
                    0.5
                ],
                "xyz": [
                    3.5336056943994576,
                    1.834890209635648,
                    1.74851622
                ],
                "label": "Sr",
                "properties": {}
            },
            {
                "species": [
                    {
                        "element": "Sr",
                        "occu": 1
                    }
                ],
                "abc": [
                    0.9258601,
                    0.68108824,
                    0.5
                ],
                "xyz": [
                    5.698305450600543,
                    6.901177809635648,
                    1.74851622
                ],
                "label": "Sr",
                "properties": {}
            },
            {
                "species": [
                    {
                        "element": "Sr",
                        "occu": 1
                    }
                ],
                "abc": [
                    0.0741399,
                    0.31891176,
                    0.5
                ],
                "xyz": [
                    0.456301979399457,
                    3.231397390364352,
                    1.74851622
                ],
                "label": "Sr",
                "properties": {}
            },
            {
                "species": [
                    {
                        "element": "Pb",
                        "occu": 1
                    }
                ],
                "abc": [
                    0.5,
                    0.5,
                    0.0
                ],
                "xyz": [
                    3.077303715,
                    5.0662876,
                    0.0
                ],
                "label": "Pb",
                "properties": {}
            },
            {
                "species": [
                    {
                        "element": "Pb",
                        "occu": 1
                    }
                ],
                "abc": [
                    0.0,
                    0.0,
                    0.0
                ],
                "xyz": [
                    0.0,
                    0.0,
                    0.0
                ],
                "label": "Pb",
                "properties": {}
            },
            {
                "species": [
                    {
                        "element": "O",
                        "occu": 1
                    }
                ],
                "abc": [
                    0.13492994,
                    0.80417352,
                    0.0
                ],
                "xyz": [
                    0.8304408112534543,
                    8.148348665248703,
                    0.0
                ],
                "label": "O",
                "properties": {}
            },
            {
                "species": [
                    {
                        "element": "O",
                        "occu": 1
                    }
                ],
                "abc": [
                    0.86507006,
                    0.19582648,
                    0.0
                ],
                "xyz": [
                    5.324166618746546,
                    1.984226534751296,
                    0.0
                ],
                "label": "O",
                "properties": {}
            },
            {
                "species": [
                    {
                        "element": "O",
                        "occu": 1
                    }
                ],
                "abc": [
                    0.63492994,
                    0.69582648,
                    0.0
                ],
                "xyz": [
                    3.9077445262534547,
                    7.050514134751296,
                    0.0
                ],
                "label": "O",
                "properties": {}
            },
            {
                "species": [
                    {
                        "element": "O",
                        "occu": 1
                    }
                ],
                "abc": [
                    0.36507006,
                    0.30417352,
                    0.0
                ],
                "xyz": [
                    2.2468629037465457,
                    3.0820610652487037,
                    0.0
                ],
                "label": "O",
                "properties": {}
            },
            {
                "species": [
                    {
                        "element": "O",
                        "occu": 1
                    }
                ],
                "abc": [
                    0.27426245,
                    0.55060991,
                    0.5
                ],
                "xyz": [
                    1.6879777125400035,
                    5.579096318940232,
                    1.74851622
                ],
                "label": "O",
                "properties": {}
            },
            {
                "species": [
                    {
                        "element": "O",
                        "occu": 1
                    }
                ],
                "abc": [
                    0.72573755,
                    0.44939009,
                    0.5
                ],
                "xyz": [
                    4.4666297174599965,
                    4.553478881059768,
                    1.74851622
                ],
                "label": "O",
                "properties": {}
            },
            {
                "species": [
                    {
                        "element": "O",
                        "occu": 1
                    }
                ],
                "abc": [
                    0.22573755,
                    0.05060991,
                    0.5
                ],
                "xyz": [
                    1.3893260024599967,
                    0.512808718940232,
                    1.74851622
                ],
                "label": "O",
                "properties": {}
            },
            {
                "species": [
                    {
                        "element": "O",
                        "occu": 1
                    }
                ],
                "abc": [
                    0.77426245,
                    0.94939009,
                    0.5
                ],
                "xyz": [
                    4.765281427540004,
                    9.619766481059768,
                    1.74851622
                ],
                "label": "O",
                "properties": {}
            }
        ]
    },
    "spacegroup": {
        "source": "spglib",
        "symbol": "Pbam",
        "number": 55,
        "point_group": "mmm",
        "crystal_system": "orthorhombic",
        "hall": "-P 2 2ab"
    },
    "dielectric": {
        "epsilon_ionic": [
            [
                7.47247487,
                -3e-08,
                2e-08
            ],
            [
                -3e-08,
                8.04786558,
                -0.0
            ],
            [
                2e-08,
                -0.0,
                9.5459244
            ]
        ],
        "epsilon_ionic_avg": 8.355421616666666,
        "epsilon_ionic_eig": [
            7.472474869999999,
            8.04786558,
            9.5459244
        ],
        "epsilon_electronic": [
            [
                4.46555594,
                -0.0,
                0.0
            ],
            [
                0.0,
                4.67581532,
                0.0
            ],
            [
                0.0,
                0.0,
                4.91705094
            ]
        ],
        "epsilon_electronic_avg": 4.686140733333333,
        "epsilon_electronic_eig": [
            4.46555594,
            4.67581532,
            4.91705094
        ]
    },
    "phonon": {
        "lowest_freq": -0.06654985442582231,
        "frequency": [
            -0.06654985442582231,
            -0.011457314889976786,
            -0.010332211903827361,
            2.1136361384025313,
            2.425961332581868,
            2.478196082398106,
            2.8667211810740016,
            2.886789616197838,
            2.9842118469564904,
            3.5039698464627853,
            3.594142125005789,
            3.65564830171642,
            4.410491356548641,
            4.4493669390425055,
            4.524826408395578,
            4.707728624214403,
            6.2659681124352655,
            6.3956723509546265,
            6.9159190770256895,
            7.177875700127169,
            8.212434716455132,
            8.277373623623824,
            8.368294662862807,
            8.492899247505282,
            8.63630192651697,
            9.163657138416566,
            9.333922966644913,
            9.698228373557475,
            9.96679714827639,
            10.019773357170015,
            10.327471048176475,
            10.370103758990062,
            10.775408073981735,
            11.658610701033496,
            12.019423213745544,
            12.214413555637146,
            12.297540366423988,
            13.818462399579504,
            14.49952311272163,
            15.206686858664881,
            15.672839354909357,
            15.722916782780382
        ]
    },
    "born_effective_charge": {
        "avg_abs_trace": 2.502776666666666,
        "tensors": [
            [
                [
                    2.86057,
                    -0.17476,
                    0.0
                ],
                [
                    -0.56584,
                    2.32128,
                    0.0
                ],
                [
                    5e-05,
                    6e-05,
                    2.19927
                ]
            ],
            [
                [
                    2.86082,
                    -0.17446,
                    0.0
                ],
                [
                    -0.56581,
                    2.3213,
                    0.0
                ],
                [
                    -5e-05,
                    -6e-05,
                    2.19927
                ]
            ],
            [
                [
                    2.86057,
                    0.17476,
                    0.0
                ],
                [
                    0.56581,
                    2.3213,
                    0.0
                ],
                [
                    5e-05,
                    -6e-05,
                    2.19927
                ]
            ],
            [
                [
                    2.86082,
                    0.17446,
                    0.0
                ],
                [
                    0.56584,
                    2.32128,
                    0.0
                ],
                [
                    -5e-05,
                    6e-05,
                    2.19927
                ]
            ],
            [
                [
                    2.84869,
                    0.09734,
                    0.0
                ],
                [
                    0.00524,
                    3.6278,
                    0.0
                ],
                [
                    -0.0,
                    -0.0,
                    5.04015
                ]
            ],
            [
                [
                    2.84869,
                    -0.09734,
                    0.0
                ],
                [
                    -0.00524,
                    3.6278,
                    0.0
                ],
                [
                    -0.0,
                    -0.0,
                    5.04015
                ]
            ],
            [
                [
                    -2.02177,
                    0.06049,
                    0.0
                ],
                [
                    0.13551,
                    -2.21007,
                    0.0
                ],
                [
                    0.0,
                    -0.00021,
                    -2.17931
                ]
            ],
            [
                [
                    -2.02211,
                    0.06106,
                    0.0
                ],
                [
                    0.13532,
                    -2.20999,
                    0.0
                ],
                [
                    -0.0,
                    0.00021,
                    -2.17931
                ]
            ],
            [
                [
                    -2.02177,
                    -0.06049,
                    0.0
                ],
                [
                    -0.13532,
                    -2.20999,
                    0.0
                ],
                [
                    0.0,
                    0.00021,
                    -2.17931
                ]
            ],
            [
                [
                    -2.02211,
                    -0.06106,
                    0.0
                ],
                [
                    -0.13551,
                    -2.21007,
                    0.0
                ],
                [
                    -0.0,
                    -0.00021,
                    -2.17931
                ]
            ],
            [
                [
                    -2.26323,
                    0.23881,
                    0.0
                ],
                [
                    0.28499,
                    -1.92505,
                    0.0
                ],
                [
                    0.00036,
                    -0.00013,
                    -2.54004
                ]
            ],
            [
                [
                    -2.26298,
                    0.23938,
                    0.0
                ],
                [
                    0.28501,
                    -1.92526,
                    0.0
                ],
                [
                    -0.00036,
                    0.00013,
                    -2.54004
                ]
            ],
            [
                [
                    -2.26298,
                    -0.23938,
                    0.0
                ],
                [
                    -0.28499,
                    -1.92505,
                    0.0
                ],
                [
                    -0.00036,
                    -0.00013,
                    -2.54004
                ]
            ],
            [
                [
                    -2.26323,
                    -0.23881,
                    0.0
                ],
                [
                    -0.28501,
                    -1.92526,
                    0.0
                ],
                [
                    0.00036,
                    0.00013,
                    -2.54004
                ]
            ]
        ]
    },
    "band_gap": 1.4667,
    "is_direct": false,
    "formula": "Sr2PbO4"
}