{
    "mp_id": "mp-27275",
    "nelements": 3,
    "nsites": 28,
    "elements": [
        "B",
        "Li",
        "O"
    ],
    "structure": {
        "@module": "pymatgen.core.structure",
        "@class": "Structure",
        "charge": null,
        "lattice": {
            "matrix": [
                [
                    3.2460853,
                    0.0,
                    -0.00041416
                ],
                [
                    0.0,
                    9.17994905,
                    0.0
                ],
                [
                    -1.57580331,
                    0.0,
                    8.14687177
                ]
            ],
            "a": 3.246085326420825,
            "b": 9.17994905,
            "c": 8.297871757784034,
            "alpha": 90.0,
            "beta": 100.95452207252856,
            "gamma": 90.0,
            "volume": 242.76180701859536
        },
        "sites": [
            {
                "species": [
                    {
                        "element": "Li",
                        "occu": 1
                    }
                ],
                "abc": [
                    0.50546741,
                    0.23315192,
                    0.98131262
                ],
                "xyz": [
                    0.09443465448930066,
                    2.140322746509676,
                    7.9944187370402116
                ],
                "label": "Li",
                "properties": {}
            },
            {
                "species": [
                    {
                        "element": "Li",
                        "occu": 1
                    }
                ],
                "abc": [
                    0.49453259,
                    0.73315192,
                    0.51868738
                ],
                "xyz": [
                    0.787945680510699,
                    6.730297271509675,
                    4.225474757959789
                ],
                "label": "Li",
                "properties": {}
            },
            {
                "species": [
                    {
                        "element": "Li",
                        "occu": 1
                    }
                ],
                "abc": [
                    0.49453259,
                    0.76684808,
                    0.01868738
                ],
                "xyz": [
                    1.575847335510699,
                    7.039626303490324,
                    0.1520388729597882
                ],
                "label": "Li",
                "properties": {}
            },
            {
                "species": [
                    {
                        "element": "Li",
                        "occu": 1
                    }
                ],
                "abc": [
                    0.50546741,
                    0.26684808,
                    0.48131262
                ],
                "xyz": [
                    0.8823363094893005,
                    2.4496517784903236,
                    3.9209828520402126
                ],
                "label": "Li",
                "properties": {}
            },
            {
                "species": [
                    {
                        "element": "Li",
                        "occu": 1
                    }
                ],
                "abc": [
                    0.72386316,
                    0.47694111,
                    0.88719224
                ],
                "xyz": [
                    0.9516810944892335,
                    4.378295089650445,
                    7.22754161945272
                ],
                "label": "Li",
                "properties": {}
            },
            {
                "species": [
                    {
                        "element": "Li",
                        "occu": 1
                    }
                ],
                "abc": [
                    0.27613684,
                    0.97694111,
                    0.61280776
                ],
                "xyz": [
                    -0.06930075948923364,
                    8.968269614650444,
                    4.992351875547281
                ],
                "label": "Li",
                "properties": {}
            },
            {
                "species": [
                    {
                        "element": "Li",
                        "occu": 1
                    }
                ],
                "abc": [
                    0.27613684,
                    0.52305889,
                    0.11280776
                ],
                "xyz": [
                    0.7186008955107663,
                    4.8016539603495545,
                    0.918915990547281
                ],
                "label": "Li",
                "properties": {}
            },
            {
                "species": [
                    {
                        "element": "Li",
                        "occu": 1
                    }
                ],
                "abc": [
                    0.72386316,
                    0.02305889,
                    0.38719224
                ],
                "xyz": [
                    1.7395827494892333,
                    0.21167943534955447,
                    3.1541057344527195
                ],
                "label": "Li",
                "properties": {}
            },
            {
                "species": [
                    {
                        "element": "Li",
                        "occu": 1
                    }
                ],
                "abc": [
                    0.0913955,
                    0.42651361,
                    0.63222448
                ],
                "xyz": [
                    -0.6995838392108789,
                    3.91537320893157,
                    5.15061391605465
                ],
                "label": "Li",
                "properties": {}
            },
            {
                "species": [
                    {
                        "element": "Li",
                        "occu": 1
                    }
                ],
                "abc": [
                    0.9086045,
                    0.92651361,
                    0.86777552
                ],
                "xyz": [
                    1.5819641742108788,
                    8.50534773393157,
                    7.069279578945351
                ],
                "label": "Li",
                "properties": {}
            },
            {
                "species": [
                    {
                        "element": "Li",
                        "occu": 1
                    }
                ],
                "abc": [
                    0.9086045,
                    0.57348639,
                    0.36777552
                ],
                "xyz": [
                    2.3698658292108785,
                    5.264575841068429,
                    2.9958436939453508
                ],
                "label": "Li",
                "properties": {}
            },
            {
                "species": [
                    {
                        "element": "Li",
                        "occu": 1
                    }
                ],
                "abc": [
                    0.0913955,
                    0.07348639,
                    0.13222448
                ],
                "xyz": [
                    0.08831781578912118,
                    0.6746013160684294,
                    1.0771780310546497
                ],
                "label": "Li",
                "properties": {}
            },
            {
                "species": [
                    {
                        "element": "B",
                        "occu": 1
                    }
                ],
                "abc": [
                    0.80131931,
                    0.1858796,
                    0.74524839
                ],
                "xyz": [
                    1.426785953062972,
                    1.70636525743438,
                    6.071111195723521
                ],
                "label": "B",
                "properties": {}
            },
            {
                "species": [
                    {
                        "element": "B",
                        "occu": 1
                    }
                ],
                "abc": [
                    0.19868069,
                    0.6858796,
                    0.75475161
                ],
                "xyz": [
                    -0.5444056180629722,
                    6.29633978243438,
                    6.14878229927648
                ],
                "label": "B",
                "properties": {}
            },
            {
                "species": [
                    {
                        "element": "B",
                        "occu": 1
                    }
                ],
                "abc": [
                    0.19868069,
                    0.8141204,
                    0.25475161
                ],
                "xyz": [
                    0.24349603693702787,
                    7.473583792565619,
                    2.0753464142764795
                ],
                "label": "B",
                "properties": {}
            },
            {
                "species": [
                    {
                        "element": "B",
                        "occu": 1
                    }
                ],
                "abc": [
                    0.80131931,
                    0.3141204,
                    0.24524839
                ],
                "xyz": [
                    2.214687608062972,
                    2.88360926756562,
                    1.9976753107235208
                ],
                "label": "B",
                "properties": {}
            },
            {
                "species": [
                    {
                        "element": "O",
                        "occu": 1
                    }
                ],
                "abc": [
                    0.97150848,
                    0.13698924,
                    0.90115408
                ],
                "xyz": [
                    1.733557813669339,
                    1.257554243598222,
                    7.341184374820245
                ],
                "label": "O",
                "properties": {}
            },
            {
                "species": [
                    {
                        "element": "O",
                        "occu": 1
                    }
                ],
                "abc": [
                    0.02849152,
                    0.63698924,
                    0.59884592
                ],
                "xyz": [
                    -0.8511774786693392,
                    5.847528768598222,
                    4.8787091201797566
                ],
                "label": "O",
                "properties": {}
            },
            {
                "species": [
                    {
                        "element": "O",
                        "occu": 1
                    }
                ],
                "abc": [
                    0.02849152,
                    0.86301076,
                    0.09884592
                ],
                "xyz": [
                    -0.06327582366933922,
                    7.922394806401777,
                    0.8052732351797552
                ],
                "label": "O",
                "properties": {}
            },
            {
                "species": [
                    {
                        "element": "O",
                        "occu": 1
                    }
                ],
                "abc": [
                    0.97150848,
                    0.36301076,
                    0.40115408
                ],
                "xyz": [
                    2.521459468669339,
                    3.332420281401778,
                    3.2677484898202454
                ],
                "label": "O",
                "properties": {}
            },
            {
                "species": [
                    {
                        "element": "O",
                        "occu": 1
                    }
                ],
                "abc": [
                    0.77270544,
                    0.09348199,
                    0.61086632
                ],
                "xyz": [
                    1.5456626009905126,
                    0.8581599052926094,
                    4.976329553966756
                ],
                "label": "O",
                "properties": {}
            },
            {
                "species": [
                    {
                        "element": "O",
                        "occu": 1
                    }
                ],
                "abc": [
                    0.22729456,
                    0.59348199,
                    0.88913368
                ],
                "xyz": [
                    -0.6632822659905129,
                    5.448134430292609,
                    7.243563941033245
                ],
                "label": "O",
                "properties": {}
            },
            {
                "species": [
                    {
                        "element": "O",
                        "occu": 1
                    }
                ],
                "abc": [
                    0.22729456,
                    0.90651801,
                    0.38913368
                ],
                "xyz": [
                    0.12461938900948721,
                    8.32178914470739,
                    3.170128056033244
                ],
                "label": "O",
                "properties": {}
            },
            {
                "species": [
                    {
                        "element": "O",
                        "occu": 1
                    }
                ],
                "abc": [
                    0.77270544,
                    0.40651801,
                    0.11086632
                ],
                "xyz": [
                    2.3335642559905123,
                    3.7318146197073903,
                    0.9028936689667562
                ],
                "label": "O",
                "properties": {}
            },
            {
                "species": [
                    {
                        "element": "O",
                        "occu": 1
                    }
                ],
                "abc": [
                    0.63408607,
                    0.32623946,
                    0.7211174
                ],
                "xyz": [
                    0.9219582849431769,
                    2.9948616208995125,
                    5.874588375829047
                ],
                "label": "O",
                "properties": {}
            },
            {
                "species": [
                    {
                        "element": "O",
                        "occu": 1
                    }
                ],
                "abc": [
                    0.36591393,
                    0.82623946,
                    0.7788826
                ],
                "xyz": [
                    -0.03957794994317698,
                    7.584836145899513,
                    6.345305119170954
                ],
                "label": "O",
                "properties": {}
            },
            {
                "species": [
                    {
                        "element": "O",
                        "occu": 1
                    }
                ],
                "abc": [
                    0.36591393,
                    0.67376054,
                    0.2788826
                ],
                "xyz": [
                    0.748323705056823,
                    6.185087429100486,
                    2.2718692341709534
                ],
                "label": "O",
                "properties": {}
            },
            {
                "species": [
                    {
                        "element": "O",
                        "occu": 1
                    }
                ],
                "abc": [
                    0.63408607,
                    0.17376054,
                    0.2211174
                ],
                "xyz": [
                    1.7098599399431769,
                    1.5951129041004868,
                    1.801152490829047
                ],
                "label": "O",
                "properties": {}
            }
        ]
    },
    "spacegroup": {
        "source": "spglib",
        "symbol": "P2_1/c",
        "number": 14,
        "point_group": "2/m",
        "crystal_system": "monoclinic",
        "hall": "-P 2ybc"
    },
    "dielectric": {
        "epsilon_ionic": [
            [
                2.97233315,
                -2e-08,
                -0.24442942
            ],
            [
                -2e-08,
                3.64763517,
                -1.9e-07
            ],
            [
                -0.24442942,
                -1.9e-07,
                6.05168385
            ]
        ],
        "epsilon_ionic_avg": 4.223884056666666,
        "epsilon_ionic_eig": [
            2.9530518217182826,
            6.070965178281729,
            3.647635169999987
        ],
        "epsilon_electronic": [
            [
                2.52349574,
                0.0,
                0.02120987
            ],
            [
                0.0,
                2.66481915,
                0.0
            ],
            [
                0.0212099,
                0.0,
                2.76553509
            ]
        ],
        "epsilon_electronic_avg": 2.6512833266666664,
        "epsilon_electronic_eig": [
            2.5216511770834336,
            2.7673796529165666,
            2.66481915
        ]
    },
    "phonon": {
        "lowest_freq": -0.09257040378493613,
        "frequency": [
            -0.09257040378493613,
            -0.048353827195547996,
            -0.04012360844996758,
            3.6233116630109214,
            3.6433232444441597,
            3.9452480964015972,
            3.9613695081099958,
            4.2966662464708545,
            5.172065056921265,
            5.487804364562542,
            5.603133446950582,
            5.670563767062207,
            5.95835564842941,
            6.43220543176071,
            6.644572621930795,
            6.86197920794962,
            7.188264203709372,
            7.2688663080663485,
            7.436916515348211,
            7.711451778243989,
            7.750344646475599,
            7.796997164549082,
            8.280582715922632,
            8.491586440182166,
            8.864516371469636,
            8.937811420303388,
            9.75052919592853,
            10.237067520574982,
            10.25259188651629,
            10.74941303986156,
            10.848675478231922,
            11.055025601927618,
            11.506121242919338,
            11.608600114197117,
            11.794977375853385,
            11.95092046025498,
            12.198304845340727,
            12.254995634177787,
            12.675891985827738,
            12.783231849758907,
            12.96368328392271,
            12.984981736692847,
            13.13245892686766,
            13.434883380974405,
            13.702926817521416,
            13.866629819392902,
            14.044928021039205,
            14.255110963648677,
            14.275144253788943,
            14.564688388304505,
            14.614443620894628,
            14.750471500988473,
            14.802300268239309,
            15.154615143795187,
            15.262413714787765,
            15.304225436401353,
            15.886954627697644,
            16.440417295182197,
            16.481091793803962,
            17.02389733097172,
            17.97623365366863,
            18.007870216642957,
            18.4055174077158,
            18.49351984571554,
            18.599388593380166,
            18.70152039520133,
            19.073392021818243,
            19.509887131047815,
            21.162824130017114,
            21.168110342549813,
            21.26227841137782,
            21.284105571395816,
            27.17197758737232,
            27.3748337584508,
            27.539373032761144,
            27.683748387544618,
            36.059821734976985,
            36.6562445623628,
            37.14032355601604,
            37.53237195712527,
            38.851708510530656,
            39.25601869946655,
            40.015092056097366,
            40.72230257907678
        ]
    },
    "born_effective_charge": {
        "avg_abs_trace": 1.3965166666666666,
        "tensors": [
            [
                [
                    0.99225,
                    0.03577,
                    -0.02605
                ],
                [
                    0.02329,
                    0.80157,
                    0.10646
                ],
                [
                    -0.00175,
                    0.11999,
                    1.16025
                ]
            ],
            [
                [
                    0.99225,
                    -0.03577,
                    -0.02604
                ],
                [
                    -0.02329,
                    0.80157,
                    -0.10646
                ],
                [
                    -0.00174,
                    -0.11998,
                    1.16025
                ]
            ],
            [
                [
                    0.99225,
                    0.03577,
                    -0.02604
                ],
                [
                    0.02329,
                    0.80158,
                    0.10647
                ],
                [
                    -0.00174,
                    0.11998,
                    1.16025
                ]
            ],
            [
                [
                    0.99225,
                    -0.03577,
                    -0.02605
                ],
                [
                    -0.02329,
                    0.80158,
                    -0.10647
                ],
                [
                    -0.00175,
                    -0.11999,
                    1.16025
                ]
            ],
            [
                [
                    0.95313,
                    -0.02292,
                    -0.03567
                ],
                [
                    -0.01477,
                    1.0671,
                    -0.0067
                ],
                [
                    -0.01602,
                    -0.08056,
                    1.00381
                ]
            ],
            [
                [
                    0.95313,
                    0.02291,
                    -0.03567
                ],
                [
                    0.01477,
                    1.0671,
                    0.0067
                ],
                [
                    -0.01603,
                    0.08056,
                    1.00381
                ]
            ],
            [
                [
                    0.95313,
                    -0.02291,
                    -0.03567
                ],
                [
                    -0.01477,
                    1.0671,
                    -0.00671
                ],
                [
                    -0.01603,
                    -0.08056,
                    1.00381
                ]
            ],
            [
                [
                    0.95313,
                    0.02292,
                    -0.03567
                ],
                [
                    0.01477,
                    1.0671,
                    0.00671
                ],
                [
                    -0.01602,
                    0.08056,
                    1.00381
                ]
            ],
            [
                [
                    0.94061,
                    0.00283,
                    0.02901
                ],
                [
                    0.00595,
                    1.14206,
                    0.02733
                ],
                [
                    0.00905,
                    0.10788,
                    1.08066
                ]
            ],
            [
                [
                    0.94061,
                    -0.00283,
                    0.02901
                ],
                [
                    -0.00595,
                    1.14206,
                    -0.02733
                ],
                [
                    0.00905,
                    -0.10788,
                    1.08066
                ]
            ],
            [
                [
                    0.94061,
                    0.00283,
                    0.02901
                ],
                [
                    0.00594,
                    1.14206,
                    0.02734
                ],
                [
                    0.00905,
                    0.10788,
                    1.08066
                ]
            ],
            [
                [
                    0.94061,
                    -0.00283,
                    0.02901
                ],
                [
                    -0.00594,
                    1.14206,
                    -0.02734
                ],
                [
                    0.00905,
                    -0.10788,
                    1.08066
                ]
            ],
            [
                [
                    0.95673,
                    -0.59396,
                    0.26747
                ],
                [
                    -0.53823,
                    2.14186,
                    0.14062
                ],
                [
                    0.2323,
                    0.0875,
                    2.42337
                ]
            ],
            [
                [
                    0.95673,
                    0.59396,
                    0.26746
                ],
                [
                    0.53823,
                    2.14186,
                    -0.14062
                ],
                [
                    0.23233,
                    -0.08748,
                    2.4234
                ]
            ],
            [
                [
                    0.95673,
                    -0.59396,
                    0.26746
                ],
                [
                    -0.53824,
                    2.14187,
                    0.14062
                ],
                [
                    0.23233,
                    0.08748,
                    2.4234
                ]
            ],
            [
                [
                    0.95673,
                    0.59396,
                    0.26747
                ],
                [
                    0.53824,
                    2.14187,
                    -0.14062
                ],
                [
                    0.2323,
                    -0.0875,
                    2.42337
                ]
            ],
            [
                [
                    -1.24973,
                    0.10837,
                    -0.22471
                ],
                [
                    0.12734,
                    -1.361,
                    0.19354
                ],
                [
                    -0.20964,
                    0.25331,
                    -2.23172
                ]
            ],
            [
                [
                    -1.24971,
                    -0.10833,
                    -0.22466
                ],
                [
                    -0.12734,
                    -1.361,
                    -0.19354
                ],
                [
                    -0.20954,
                    -0.25308,
                    -2.23136
                ]
            ],
            [
                [
                    -1.24971,
                    0.10833,
                    -0.22466
                ],
                [
                    0.12715,
                    -1.36069,
                    0.19301
                ],
                [
                    -0.20954,
                    0.25308,
                    -2.23136
                ]
            ],
            [
                [
                    -1.24973,
                    -0.10837,
                    -0.22471
                ],
                [
                    -0.12715,
                    -1.36069,
                    -0.19301
                ],
                [
                    -0.20964,
                    -0.25331,
                    -2.23172
                ]
            ],
            [
                [
                    -1.19111,
                    0.11024,
                    0.05512
                ],
                [
                    0.08649,
                    -1.70861,
                    -0.45241
                ],
                [
                    0.01736,
                    -0.45536,
                    -1.99203
                ]
            ],
            [
                [
                    -1.19112,
                    -0.11025,
                    0.05513
                ],
                [
                    -0.08649,
                    -1.70861,
                    0.45241
                ],
                [
                    0.01736,
                    0.45549,
                    -1.992
                ]
            ],
            [
                [
                    -1.19112,
                    0.11025,
                    0.05513
                ],
                [
                    0.08639,
                    -1.70848,
                    -0.45258
                ],
                [
                    0.01736,
                    -0.45549,
                    -1.992
                ]
            ],
            [
                [
                    -1.19111,
                    -0.11024,
                    0.05512
                ],
                [
                    -0.08639,
                    -1.70848,
                    0.45258
                ],
                [
                    0.01736,
                    0.45536,
                    -1.99203
                ]
            ],
            [
                [
                    -1.4019,
                    0.34506,
                    -0.0652
                ],
                [
                    0.34424,
                    -2.08344,
                    0.06598
                ],
                [
                    -0.03148,
                    0.09856,
                    -1.44461
                ]
            ],
            [
                [
                    -1.40187,
                    -0.345,
                    -0.06519
                ],
                [
                    -0.34424,
                    -2.08344,
                    -0.06598
                ],
                [
                    -0.03124,
                    -0.09805,
                    -1.44449
                ]
            ],
            [
                [
                    -1.40187,
                    0.345,
                    -0.06519
                ],
                [
                    0.34396,
                    -2.08298,
                    0.06576
                ],
                [
                    -0.03124,
                    0.09805,
                    -1.44449
                ]
            ],
            [
                [
                    -1.4019,
                    -0.34506,
                    -0.0652
                ],
                [
                    -0.34396,
                    -2.08298,
                    -0.06576
                ],
                [
                    -0.03148,
                    -0.09856,
                    -1.44461
                ]
            ]
        ]
    },
    "band_gap": 5.2981,
    "is_direct": false,
    "formula": "Li3BO3"
}