{
    "mp_id": "mp-28158",
    "nelements": 3,
    "nsites": 24,
    "elements": [
        "Be",
        "K",
        "O"
    ],
    "structure": {
        "@module": "pymatgen.core.structure",
        "@class": "Structure",
        "charge": null,
        "lattice": {
            "matrix": [
                [
                    5.17553829,
                    -3.62296776,
                    0.0005336
                ],
                [
                    5.17553829,
                    3.62296776,
                    0.0005336
                ],
                [
                    -5.09071931,
                    0.0,
                    9.55143388
                ]
            ],
            "a": 6.3176017812129075,
            "b": 6.3176017812129075,
            "c": 10.823368803529643,
            "alpha": 112.65889281690767,
            "beta": 112.65889281690767,
            "gamma": 69.98539169602908,
            "volume": 358.21389551166175
        },
        "sites": [
            {
                "species": [
                    {
                        "element": "K",
                        "occu": 1
                    }
                ],
                "abc": [
                    0.77647826,
                    0.55751265,
                    0.5946407
                ],
                "xyz": [
                    3.876972139215027,
                    -0.7933053455787333,
                    5.680383145956492
                ],
                "label": "K",
                "properties": {}
            },
            {
                "species": [
                    {
                        "element": "K",
                        "occu": 1
                    }
                ],
                "abc": [
                    0.44248735,
                    0.22352174,
                    0.9053593
                ],
                "xyz": [
                    -1.1619745242150268,
                    -0.7933053455787336,
                    8.647834874043507
                ],
                "label": "K",
                "properties": {}
            },
            {
                "species": [
                    {
                        "element": "K",
                        "occu": 1
                    }
                ],
                "abc": [
                    0.22352174,
                    0.44248735,
                    0.4053593
                ],
                "xyz": [
                    1.3833851307849732,
                    0.7933053455787336,
                    3.8721179340435077
                ],
                "label": "K",
                "properties": {}
            },
            {
                "species": [
                    {
                        "element": "K",
                        "occu": 1
                    }
                ],
                "abc": [
                    0.55751265,
                    0.77647826,
                    0.0946407
                ],
                "xyz": [
                    6.422331794215027,
                    0.7933053455787333,
                    0.9046662059564919
                ],
                "label": "K",
                "properties": {}
            },
            {
                "species": [
                    {
                        "element": "K",
                        "occu": 1
                    }
                ],
                "abc": [
                    0.91042346,
                    0.74642326,
                    0.92394566
                ],
                "xyz": [
                    3.871525627268216,
                    -0.5941674372335517,
                    8.825889973612751
                ],
                "label": "K",
                "properties": {}
            },
            {
                "species": [
                    {
                        "element": "K",
                        "occu": 1
                    }
                ],
                "abc": [
                    0.25357674,
                    0.08957654,
                    0.57605434
                ],
                "xyz": [
                    -1.1565280122682138,
                    -0.594167437233552,
                    5.502328046387246
                ],
                "label": "K",
                "properties": {}
            },
            {
                "species": [
                    {
                        "element": "K",
                        "occu": 1
                    }
                ],
                "abc": [
                    0.08957654,
                    0.25357674,
                    0.07605434
                ],
                "xyz": [
                    1.3888316427317862,
                    0.594167437233552,
                    0.7266111063872471
                ],
                "label": "K",
                "properties": {}
            },
            {
                "species": [
                    {
                        "element": "K",
                        "occu": 1
                    }
                ],
                "abc": [
                    0.74642326,
                    0.91042346,
                    0.42394566
                ],
                "xyz": [
                    6.4168852822682165,
                    0.5941674372335517,
                    4.050173033612753
                ],
                "label": "K",
                "properties": {}
            },
            {
                "species": [
                    {
                        "element": "Be",
                        "occu": 1
                    }
                ],
                "abc": [
                    0.30958483,
                    0.69041517,
                    0.75
                ],
                "xyz": [
                    1.3574988075000007,
                    1.3797360438498383,
                    7.16410901
                ],
                "label": "Be",
                "properties": {}
            },
            {
                "species": [
                    {
                        "element": "Be",
                        "occu": 1
                    }
                ],
                "abc": [
                    0.69041517,
                    0.30958483,
                    0.25
                ],
                "xyz": [
                    3.9028584625000002,
                    -1.3797360438498383,
                    2.3883920699999996
                ],
                "label": "Be",
                "properties": {}
            },
            {
                "species": [
                    {
                        "element": "Be",
                        "occu": 1
                    }
                ],
                "abc": [
                    0.26941532,
                    0.73058468,
                    0.25
                ],
                "xyz": [
                    3.9028584625000002,
                    1.6708017231798333,
                    2.3883920699999996
                ],
                "label": "Be",
                "properties": {}
            },
            {
                "species": [
                    {
                        "element": "Be",
                        "occu": 1
                    }
                ],
                "abc": [
                    0.73058468,
                    0.26941532,
                    0.75
                ],
                "xyz": [
                    1.3574988075000007,
                    -1.6708017231798333,
                    7.16410901
                ],
                "label": "Be",
                "properties": {}
            },
            {
                "species": [
                    {
                        "element": "Be",
                        "occu": 1
                    }
                ],
                "abc": [
                    0.98082573,
                    0.01917427,
                    0.25
                ],
                "xyz": [
                    3.9028584625000002,
                    -3.484032235936929,
                    2.3883920699999996
                ],
                "label": "Be",
                "properties": {}
            },
            {
                "species": [
                    {
                        "element": "Be",
                        "occu": 1
                    }
                ],
                "abc": [
                    0.01917427,
                    0.98082573,
                    0.75
                ],
                "xyz": [
                    1.3574988075000007,
                    3.484032235936929,
                    7.16410901
                ],
                "label": "Be",
                "properties": {}
            },
            {
                "species": [
                    {
                        "element": "O",
                        "occu": 1
                    }
                ],
                "abc": [
                    0.47943332,
                    0.52056668,
                    0.25
                ],
                "xyz": [
                    3.9028584625000002,
                    0.14902483714047343,
                    2.3883920699999996
                ],
                "label": "O",
                "properties": {}
            },
            {
                "species": [
                    {
                        "element": "O",
                        "occu": 1
                    }
                ],
                "abc": [
                    0.52056668,
                    0.47943332,
                    0.75
                ],
                "xyz": [
                    1.3574988075000007,
                    -0.14902483714047343,
                    7.16410901
                ],
                "label": "O",
                "properties": {}
            },
            {
                "species": [
                    {
                        "element": "O",
                        "occu": 1
                    }
                ],
                "abc": [
                    0.77243259,
                    0.12341755,
                    0.12223992
                ],
                "xyz": [
                    4.014217580475005,
                    -2.35136056567511,
                    1.1680445390111935
                ],
                "label": "O",
                "properties": {}
            },
            {
                "species": [
                    {
                        "element": "O",
                        "occu": 1
                    }
                ],
                "abc": [
                    0.87658245,
                    0.22756741,
                    0.37776008
                ],
                "xyz": [
                    3.791499344524995,
                    -2.3513605656751104,
                    3.608739600988806
                ],
                "label": "O",
                "properties": {}
            },
            {
                "species": [
                    {
                        "element": "O",
                        "occu": 1
                    }
                ],
                "abc": [
                    0.22756741,
                    0.87658245,
                    0.87776008
                ],
                "xyz": [
                    1.2461396895249948,
                    2.3513605656751104,
                    8.384456540988806
                ],
                "label": "O",
                "properties": {}
            },
            {
                "species": [
                    {
                        "element": "O",
                        "occu": 1
                    }
                ],
                "abc": [
                    0.12341755,
                    0.77243259,
                    0.62223992
                ],
                "xyz": [
                    1.4688579254750058,
                    2.35136056567511,
                    5.943761479011193
                ],
                "label": "O",
                "properties": {}
            },
            {
                "species": [
                    {
                        "element": "O",
                        "occu": 1
                    }
                ],
                "abc": [
                    0.01220058,
                    0.73347252,
                    0.2328841
                ],
                "xyz": [
                    2.673712096011028,
                    2.6131449848126542,
                    2.2247749740194678
                ],
                "label": "O",
                "properties": {}
            },
            {
                "species": [
                    {
                        "element": "O",
                        "occu": 1
                    }
                ],
                "abc": [
                    0.26652748,
                    0.98779942,
                    0.2671159
                ],
                "xyz": [
                    5.132004828988972,
                    2.6131449848126542,
                    2.552009165980532
                ],
                "label": "O",
                "properties": {}
            },
            {
                "species": [
                    {
                        "element": "O",
                        "occu": 1
                    }
                ],
                "abc": [
                    0.98779942,
                    0.26652748,
                    0.7671159
                ],
                "xyz": [
                    2.5866451739889724,
                    -2.6131449848126542,
                    7.327726105980531
                ],
                "label": "O",
                "properties": {}
            },
            {
                "species": [
                    {
                        "element": "O",
                        "occu": 1
                    }
                ],
                "abc": [
                    0.73347252,
                    0.01220058,
                    0.7328841
                ],
                "xyz": [
                    0.12835244101102816,
                    -2.6131449848126542,
                    7.0004919140194675
                ],
                "label": "O",
                "properties": {}
            }
        ]
    },
    "spacegroup": {
        "source": "spglib",
        "symbol": "C2/c",
        "number": 15,
        "point_group": "2/m",
        "crystal_system": "monoclinic",
        "hall": "-C 2yc"
    },
    "dielectric": {
        "epsilon_ionic": [
            [
                4.59196829,
                0.0,
                0.52671936
            ],
            [
                0.0,
                5.51066012,
                -0.0
            ],
            [
                0.52671936,
                -0.0,
                6.10937856
            ]
        ],
        "epsilon_ionic_avg": 5.404002323333334,
        "epsilon_ionic_eig": [
            4.427057289327729,
            6.27428956067227,
            5.51066012
        ],
        "epsilon_electronic": [
            [
                2.72007116,
                0.0,
                -0.00791543
            ],
            [
                0.0,
                2.74637623,
                0.0
            ],
            [
                -0.00791515,
                0.0,
                2.7007784
            ]
        ],
        "epsilon_electronic_avg": 2.7224085966666665,
        "epsilon_electronic_eig": [
            2.7229029394343436,
            2.697946620565656,
            2.74637623
        ]
    },
    "phonon": {
        "lowest_freq": -0.03373959310227894,
        "frequency": [
            -0.03373959310227894,
            -0.03328165342730535,
            -0.019048638466476295,
            1.9250061323402474,
            2.0379107116525974,
            2.2036927803475406,
            2.348125379531803,
            2.4304583291318145,
            2.4441517124884378,
            2.6538764111088566,
            2.793022376272534,
            2.8415699008356015,
            3.0097918888131,
            3.2623026117420224,
            3.4773916599747774,
            3.528021012446884,
            3.581740669480007,
            3.848123797480114,
            4.145252477397871,
            4.2899872018459835,
            4.352170055365419,
            4.4718165457296015,
            4.57619320875564,
            4.8112054754992215,
            5.0434847300945815,
            5.088078315950792,
            5.259879252001228,
            5.2667335034945415,
            5.394733865045384,
            5.417782395877355,
            5.7208728640734945,
            5.796507991241443,
            6.08941066099305,
            6.112739909933354,
            6.291445398387671,
            6.3743711051123455,
            7.578208967235114,
            7.624267863894326,
            8.770034640416485,
            8.845660378811715,
            9.11905131109149,
            9.34854847108326,
            12.810233509999064,
            13.027285506611983,
            13.532586817664306,
            13.636520842828023,
            14.483889138884134,
            14.517520661723703,
            15.88287996318403,
            15.899360352623342,
            16.06323606286057,
            16.217423275589997,
            16.295119525490733,
            16.38292828517004,
            18.182110114128417,
            18.20682674817165,
            18.70356837262143,
            19.002518255821506,
            19.551620565539565,
            19.606362897680032,
            21.813608451370353,
            21.89823118908915,
            22.873272800044337,
            22.92225830103929,
            26.3788108888253,
            27.141633397760287,
            27.14588018522131,
            27.5661308880022,
            30.704696189404373,
            30.765202477793647,
            33.575042393465466,
            33.66588514897084
        ]
    },
    "born_effective_charge": {
        "avg_abs_trace": 1.4776952777777776,
        "tensors": [
            [
                [
                    1.19348,
                    0.06952,
                    0.0112
                ],
                [
                    0.06557,
                    1.09998,
                    0.12563
                ],
                [
                    -0.00766,
                    0.10408,
                    1.19026
                ]
            ],
            [
                [
                    1.19349,
                    -0.0695,
                    0.01118
                ],
                [
                    -0.06557,
                    1.09998,
                    -0.12563
                ],
                [
                    -0.00768,
                    -0.10406,
                    1.19023
                ]
            ],
            [
                [
                    1.19349,
                    0.0695,
                    0.01118
                ],
                [
                    0.06558,
                    1.09997,
                    0.12561
                ],
                [
                    -0.00768,
                    0.10406,
                    1.19023
                ]
            ],
            [
                [
                    1.19348,
                    -0.06952,
                    0.0112
                ],
                [
                    -0.06558,
                    1.09997,
                    -0.12561
                ],
                [
                    -0.00766,
                    -0.10408,
                    1.19026
                ]
            ],
            [
                [
                    1.18547,
                    0.02928,
                    -0.01053
                ],
                [
                    0.02802,
                    1.07554,
                    0.08816
                ],
                [
                    -0.00021,
                    0.0742,
                    1.25539
                ]
            ],
            [
                [
                    1.18548,
                    -0.02928,
                    -0.01051
                ],
                [
                    -0.02802,
                    1.07554,
                    -0.08816
                ],
                [
                    -0.00021,
                    -0.07421,
                    1.25541
                ]
            ],
            [
                [
                    1.18548,
                    0.02928,
                    -0.01051
                ],
                [
                    0.02801,
                    1.07553,
                    0.08819
                ],
                [
                    -0.00021,
                    0.07421,
                    1.25541
                ]
            ],
            [
                [
                    1.18547,
                    -0.02928,
                    -0.01053
                ],
                [
                    -0.02801,
                    1.07553,
                    -0.08819
                ],
                [
                    -0.00021,
                    -0.0742,
                    1.25539
                ]
            ],
            [
                [
                    0.50524,
                    1e-05,
                    -0.0843
                ],
                [
                    0.0,
                    2.2081,
                    0.0
                ],
                [
                    -0.08364,
                    -2e-05,
                    1.44443
                ]
            ],
            [
                [
                    0.50524,
                    -1e-05,
                    -0.0843
                ],
                [
                    0.0,
                    2.20814,
                    0.0
                ],
                [
                    -0.08364,
                    2e-05,
                    1.44443
                ]
            ],
            [
                [
                    1.50065,
                    1e-05,
                    0.12184
                ],
                [
                    -0.0,
                    2.12471,
                    0.0
                ],
                [
                    0.13309,
                    -1e-05,
                    0.33831
                ]
            ],
            [
                [
                    1.50065,
                    -1e-05,
                    0.12184
                ],
                [
                    -0.0,
                    2.12483,
                    0.0
                ],
                [
                    0.13309,
                    1e-05,
                    0.33831
                ]
            ],
            [
                [
                    1.21135,
                    0.0,
                    0.02477
                ],
                [
                    -0.0,
                    2.05022,
                    0.0
                ],
                [
                    0.0371,
                    -1e-05,
                    1.21523
                ]
            ],
            [
                [
                    1.21135,
                    -0.0,
                    0.02477
                ],
                [
                    -0.0,
                    2.05015,
                    0.0
                ],
                [
                    0.0371,
                    1e-05,
                    1.21523
                ]
            ],
            [
                [
                    -1.29519,
                    -0.0,
                    -0.01494
                ],
                [
                    -0.0,
                    -2.79234,
                    0.0
                ],
                [
                    -0.01254,
                    -0.0,
                    -1.16219
                ]
            ],
            [
                [
                    -1.29519,
                    0.0,
                    -0.01494
                ],
                [
                    -0.0,
                    -2.79241,
                    0.0
                ],
                [
                    -0.01254,
                    0.0,
                    -1.16219
                ]
            ],
            [
                [
                    -1.31745,
                    0.02109,
                    0.05083
                ],
                [
                    0.03681,
                    -1.95513,
                    0.03833
                ],
                [
                    0.07276,
                    0.02819,
                    -2.07431
                ]
            ],
            [
                [
                    -1.31745,
                    -0.02106,
                    0.05091
                ],
                [
                    -0.03681,
                    -1.95513,
                    -0.03833
                ],
                [
                    0.07275,
                    -0.02822,
                    -2.07438
                ]
            ],
            [
                [
                    -1.31745,
                    0.02106,
                    0.05091
                ],
                [
                    0.03681,
                    -1.95512,
                    0.03844
                ],
                [
                    0.07275,
                    0.02822,
                    -2.07438
                ]
            ],
            [
                [
                    -1.31745,
                    -0.02109,
                    0.05083
                ],
                [
                    -0.03681,
                    -1.95512,
                    -0.03844
                ],
                [
                    0.07276,
                    -0.02819,
                    -2.07431
                ]
            ],
            [
                [
                    -2.02254,
                    -0.0414,
                    -0.07523
                ],
                [
                    -0.01063,
                    -2.01571,
                    0.02444
                ],
                [
                    -0.10186,
                    0.01225,
                    -1.28918
                ]
            ],
            [
                [
                    -2.02253,
                    0.04141,
                    -0.07521
                ],
                [
                    0.01063,
                    -2.01571,
                    -0.02444
                ],
                [
                    -0.1019,
                    -0.01221,
                    -1.2892
                ]
            ],
            [
                [
                    -2.02253,
                    -0.04141,
                    -0.07521
                ],
                [
                    -0.01051,
                    -2.01576,
                    0.02447
                ],
                [
                    -0.1019,
                    0.01221,
                    -1.2892
                ]
            ],
            [
                [
                    -2.02254,
                    0.0414,
                    -0.07523
                ],
                [
                    0.01051,
                    -2.01576,
                    -0.02447
                ],
                [
                    -0.10186,
                    -0.01225,
                    -1.28918
                ]
            ]
        ]
    },
    "band_gap": 3.2083000000000004,
    "is_direct": false,
    "formula": "K4Be3O5"
}