{
    "mp_id": "mp-23089",
    "nelements": 4,
    "nsites": 28,
    "elements": [
        "Bi",
        "O",
        "Sr",
        "Ta"
    ],
    "structure": {
        "@module": "pymatgen.core.structure",
        "@class": "Structure",
        "charge": null,
        "lattice": {
            "matrix": [
                [
                    12.51175205,
                    -2.78000974,
                    0.0
                ],
                [
                    12.51175205,
                    2.78000974,
                    0.0
                ],
                [
                    0.0,
                    0.0,
                    5.55684519
                ]
            ],
            "a": 12.816879242435503,
            "b": 12.816879242435503,
            "c": 5.55684519,
            "alpha": 90.0,
            "beta": 90.0,
            "gamma": 25.054302317339783,
            "volume": 386.5651871021161
        },
        "sites": [
            {
                "species": [
                    {
                        "element": "Sr",
                        "occu": 1
                    }
                ],
                "abc": [
                    0.25150899,
                    0.74849101,
                    0.01556516
                ],
                "xyz": [
                    12.511752049999998,
                    1.3816148562048747,
                    0.08649318447758039
                ],
                "label": "Sr",
                "properties": {}
            },
            {
                "species": [
                    {
                        "element": "Sr",
                        "occu": 1
                    }
                ],
                "abc": [
                    0.74849101,
                    0.25150899,
                    0.51556516
                ],
                "xyz": [
                    12.511752049999998,
                    -1.3816148562048747,
                    2.86491577947758
                ],
                "label": "Sr",
                "properties": {}
            },
            {
                "species": [
                    {
                        "element": "Ta",
                        "occu": 1
                    }
                ],
                "abc": [
                    0.16410052,
                    0.66920569,
                    0.52519105
                ],
                "xyz": [
                    10.42612068124523,
                    1.4041972923243558,
                    2.9184053600235496
                ],
                "label": "Ta",
                "properties": {}
            },
            {
                "species": [
                    {
                        "element": "Ta",
                        "occu": 1
                    }
                ],
                "abc": [
                    0.83589948,
                    0.33079431,
                    0.02519105
                ],
                "xyz": [
                    14.59738341875477,
                    -1.4041972923243558,
                    0.1399827650235495
                ],
                "label": "Ta",
                "properties": {}
            },
            {
                "species": [
                    {
                        "element": "Ta",
                        "occu": 1
                    }
                ],
                "abc": [
                    0.66920569,
                    0.16410052,
                    0.02519105
                ],
                "xyz": [
                    10.42612068124523,
                    -1.4041972923243558,
                    0.1399827650235495
                ],
                "label": "Ta",
                "properties": {}
            },
            {
                "species": [
                    {
                        "element": "Ta",
                        "occu": 1
                    }
                ],
                "abc": [
                    0.33079431,
                    0.83589948,
                    0.52519105
                ],
                "xyz": [
                    14.59738341875477,
                    1.4041972923243558,
                    2.9184053600235496
                ],
                "label": "Ta",
                "properties": {}
            },
            {
                "species": [
                    {
                        "element": "Bi",
                        "occu": 1
                    }
                ],
                "abc": [
                    0.98273637,
                    0.41759794,
                    0.43477579
                ],
                "xyz": [
                    17.520635673827837,
                    -1.5710903398483085,
                    2.41598175738995
                ],
                "label": "Bi",
                "properties": {}
            },
            {
                "species": [
                    {
                        "element": "Bi",
                        "occu": 1
                    }
                ],
                "abc": [
                    0.58240206,
                    0.01726363,
                    0.43477579
                ],
                "xyz": [
                    7.502868426172165,
                    -1.5710903398483085,
                    2.41598175738995
                ],
                "label": "Bi",
                "properties": {}
            },
            {
                "species": [
                    {
                        "element": "Bi",
                        "occu": 1
                    }
                ],
                "abc": [
                    0.01726363,
                    0.58240206,
                    0.93477579
                ],
                "xyz": [
                    7.502868426172165,
                    1.5710903398483085,
                    5.19440435238995
                ],
                "label": "Bi",
                "properties": {}
            },
            {
                "species": [
                    {
                        "element": "Bi",
                        "occu": 1
                    }
                ],
                "abc": [
                    0.41759794,
                    0.98273637,
                    0.93477579
                ],
                "xyz": [
                    17.520635673827837,
                    1.5710903398483085,
                    5.19440435238995
                ],
                "label": "Bi",
                "properties": {}
            },
            {
                "species": [
                    {
                        "element": "O",
                        "occu": 1
                    }
                ],
                "abc": [
                    0.73563923,
                    0.76097556,
                    0.71314673
                ],
                "xyz": [
                    18.72527316684282,
                    0.07043524417585445,
                    3.9628459763647284
                ],
                "label": "O",
                "properties": {}
            },
            {
                "species": [
                    {
                        "element": "O",
                        "occu": 1
                    }
                ],
                "abc": [
                    0.26436077,
                    0.23902444,
                    0.21314673
                ],
                "xyz": [
                    6.298230933157181,
                    -0.07043524417585434,
                    1.1844233813647287
                ],
                "label": "O",
                "properties": {}
            },
            {
                "species": [
                    {
                        "element": "O",
                        "occu": 1
                    }
                ],
                "abc": [
                    0.66721827,
                    0.01788213,
                    0.03529607
                ],
                "xyz": [
                    8.57180633415582,
                    -1.8051607937340037,
                    0.19613479680540327
                ],
                "label": "O",
                "properties": {}
            },
            {
                "species": [
                    {
                        "element": "O",
                        "occu": 1
                    }
                ],
                "abc": [
                    0.23902444,
                    0.26436077,
                    0.71314673
                ],
                "xyz": [
                    6.298230933157181,
                    0.07043524417585434,
                    3.9628459763647284
                ],
                "label": "O",
                "properties": {}
            },
            {
                "species": [
                    {
                        "element": "O",
                        "occu": 1
                    }
                ],
                "abc": [
                    0.94674207,
                    0.92059098,
                    0.2672097
                ],
                "xyz": [
                    23.36360811637025,
                    -0.07270028491161673,
                    1.4848429361663429
                ],
                "label": "O",
                "properties": {}
            },
            {
                "species": [
                    {
                        "element": "O",
                        "occu": 1
                    }
                ],
                "abc": [
                    0.39474167,
                    0.43434288,
                    0.79830958
                ],
                "xyz": [
                    10.373300318085828,
                    0.11009174951578538,
                    4.43608274975392
                ],
                "label": "O",
                "properties": {}
            },
            {
                "species": [
                    {
                        "element": "O",
                        "occu": 1
                    }
                ],
                "abc": [
                    0.76097556,
                    0.73563923,
                    0.21314673
                ],
                "xyz": [
                    18.72527316684282,
                    -0.07043524417585445,
                    1.1844233813647287
                ],
                "label": "O",
                "properties": {}
            },
            {
                "species": [
                    {
                        "element": "O",
                        "occu": 1
                    }
                ],
                "abc": [
                    0.01788213,
                    0.66721827,
                    0.53529607
                ],
                "xyz": [
                    8.57180633415582,
                    1.8051607937340037,
                    2.974557391805403
                ],
                "label": "O",
                "properties": {}
            },
            {
                "species": [
                    {
                        "element": "O",
                        "occu": 1
                    }
                ],
                "abc": [
                    0.43434288,
                    0.39474167,
                    0.29830958
                ],
                "xyz": [
                    10.373300318085828,
                    -0.11009174951578538,
                    1.6576601547539203
                ],
                "label": "O",
                "properties": {}
            },
            {
                "species": [
                    {
                        "element": "O",
                        "occu": 1
                    }
                ],
                "abc": [
                    0.33278173,
                    0.98211787,
                    0.53529607
                ],
                "xyz": [
                    16.45169776584418,
                    1.8051607937340037,
                    2.974557391805403
                ],
                "label": "O",
                "properties": {}
            },
            {
                "species": [
                    {
                        "element": "O",
                        "occu": 1
                    }
                ],
                "abc": [
                    0.05325793,
                    0.07940902,
                    0.7672097
                ],
                "xyz": [
                    1.6598959836297476,
                    0.07270028491161656,
                    4.2632655311663425
                ],
                "label": "O",
                "properties": {}
            },
            {
                "species": [
                    {
                        "element": "O",
                        "occu": 1
                    }
                ],
                "abc": [
                    0.07940902,
                    0.05325793,
                    0.2672097
                ],
                "xyz": [
                    1.6598959836297476,
                    -0.07270028491161656,
                    1.4848429361663429
                ],
                "label": "O",
                "properties": {}
            },
            {
                "species": [
                    {
                        "element": "O",
                        "occu": 1
                    }
                ],
                "abc": [
                    0.92059098,
                    0.94674207,
                    0.7672097
                ],
                "xyz": [
                    23.36360811637025,
                    0.07270028491161673,
                    4.2632655311663425
                ],
                "label": "O",
                "properties": {}
            },
            {
                "species": [
                    {
                        "element": "O",
                        "occu": 1
                    }
                ],
                "abc": [
                    0.30030413,
                    0.69969587,
                    0.533551
                ],
                "xyz": [
                    12.51175205,
                    1.1103129272755474,
                    2.96486030796969
                ],
                "label": "O",
                "properties": {}
            },
            {
                "species": [
                    {
                        "element": "O",
                        "occu": 1
                    }
                ],
                "abc": [
                    0.98211787,
                    0.33278173,
                    0.03529607
                ],
                "xyz": [
                    16.45169776584418,
                    -1.8051607937340037,
                    0.19613479680540327
                ],
                "label": "O",
                "properties": {}
            },
            {
                "species": [
                    {
                        "element": "O",
                        "occu": 1
                    }
                ],
                "abc": [
                    0.69969587,
                    0.30030413,
                    0.033551
                ],
                "xyz": [
                    12.51175205,
                    -1.1103129272755474,
                    0.18643771296968997
                ],
                "label": "O",
                "properties": {}
            },
            {
                "species": [
                    {
                        "element": "O",
                        "occu": 1
                    }
                ],
                "abc": [
                    0.56565712,
                    0.60525833,
                    0.79830958
                ],
                "xyz": [
                    14.650203781914172,
                    0.11009174951578538,
                    4.43608274975392
                ],
                "label": "O",
                "properties": {}
            },
            {
                "species": [
                    {
                        "element": "O",
                        "occu": 1
                    }
                ],
                "abc": [
                    0.60525833,
                    0.56565712,
                    0.29830958
                ],
                "xyz": [
                    14.650203781914172,
                    -0.11009174951578538,
                    1.6576601547539203
                ],
                "label": "O",
                "properties": {}
            }
        ]
    },
    "spacegroup": {
        "source": "spglib",
        "symbol": "Cmc2_1",
        "number": 36,
        "point_group": "mm2",
        "crystal_system": "orthorhombic",
        "hall": "C 2c -2"
    },
    "dielectric": {
        "epsilon_ionic": [
            [
                38.63168167,
                0.0,
                2.1e-07
            ],
            [
                0.0,
                36.37633599,
                -4.27e-06
            ],
            [
                2.1e-07,
                -4.27e-06,
                39.75483681
            ]
        ],
        "epsilon_ionic_avg": 38.254284823333336,
        "epsilon_ionic_eig": [
            38.63168166999994,
            39.75483681000546,
            36.37633598999461
        ],
        "epsilon_electronic": [
            [
                5.40938352,
                0.0,
                0.0
            ],
            [
                0.0,
                5.63374626,
                0.0
            ],
            [
                0.0,
                0.0,
                5.59114111
            ]
        ],
        "epsilon_electronic_avg": 5.544756963333334,
        "epsilon_electronic_eig": [
            5.40938352,
            5.63374626,
            5.59114111
        ]
    },
    "phonon": {
        "lowest_freq": -0.07983068203548019,
        "frequency": [
            -0.07983068203548019,
            -0.0675125447381366,
            -0.01003513406469033,
            1.3374939719108832,
            1.374848978562129,
            1.881075437454793,
            1.9641691520364037,
            2.1031375490241753,
            2.1315241191306162,
            2.1656872451069167,
            2.362260118692266,
            2.4624441507746067,
            2.4887345005927113,
            2.606293652827284,
            3.062563873770369,
            3.239010487459018,
            3.534571054753694,
            3.6381747930944943,
            3.924929419697876,
            4.047397868650285,
            4.167135981000614,
            4.235274881664892,
            4.406624089024886,
            4.485442649778649,
            4.519901901807465,
            4.639910509774352,
            4.727480268783884,
            4.8946097388183984,
            5.254172581231853,
            5.51842883307936,
            5.7609720556234105,
            5.788942007257485,
            6.192154979873024,
            6.34066148407298,
            6.7315038230244655,
            6.852893212193199,
            6.8805021221139455,
            7.23990996263262,
            7.303471303682259,
            7.5460007278251435,
            7.560130931717995,
            7.641212081384988,
            7.82113006473269,
            7.985753466915809,
            8.062890866981322,
            8.381115440630337,
            8.406530460386294,
            8.565584119475657,
            8.9267403295801,
            9.257621616573449,
            9.544620509847483,
            9.547790525851878,
            9.671599095470595,
            9.749774713148152,
            10.278990530130708,
            10.637275594320034,
            10.998846747102112,
            11.04123146770202,
            11.830552536904277,
            12.463645886895495,
            12.602926580700435,
            12.749008821568063,
            12.780137201554227,
            13.14843932209845,
            13.388961922270227,
            13.515205305995696,
            13.608729883751945,
            14.648496505503791,
            14.86333493030292,
            15.414202737321514,
            16.148054684956556,
            17.85344970781874,
            18.180419125345434,
            18.32962232427355,
            18.349989972319854,
            18.371726856816426,
            18.400326123930085,
            18.74413918957873,
            18.969522471298227,
            19.179572869021538,
            21.62806842913712,
            22.39008121817454,
            26.594910525516294,
            26.59545616032603
        ]
    },
    "born_effective_charge": {
        "avg_abs_trace": 3.79706619047619,
        "tensors": [
            [
                [
                    2.58855,
                    -0.0,
                    0.0
                ],
                [
                    0.0,
                    2.56607,
                    0.03576
                ],
                [
                    0.0,
                    0.12464,
                    2.49054
                ]
            ],
            [
                [
                    2.58855,
                    0.0,
                    0.0
                ],
                [
                    0.0,
                    2.56607,
                    -0.03576
                ],
                [
                    0.0,
                    -0.12464,
                    2.49054
                ]
            ],
            [
                [
                    7.62462,
                    -0.44605,
                    -0.14911
                ],
                [
                    -0.2583,
                    7.68418,
                    -0.15122
                ],
                [
                    -0.14363,
                    0.3517,
                    7.38026
                ]
            ],
            [
                [
                    7.62462,
                    -0.44604,
                    0.14911
                ],
                [
                    -0.2583,
                    7.68418,
                    0.15122
                ],
                [
                    0.14363,
                    -0.3517,
                    7.38026
                ]
            ],
            [
                [
                    7.62462,
                    0.44605,
                    -0.14911
                ],
                [
                    0.2583,
                    7.68418,
                    0.15122
                ],
                [
                    -0.14363,
                    -0.3517,
                    7.38026
                ]
            ],
            [
                [
                    7.62462,
                    0.44604,
                    0.14911
                ],
                [
                    0.2583,
                    7.68418,
                    -0.15122
                ],
                [
                    0.14363,
                    0.3517,
                    7.38026
                ]
            ],
            [
                [
                    3.78465,
                    0.91256,
                    0.47795
                ],
                [
                    0.57868,
                    4.7409,
                    -0.22901
                ],
                [
                    0.09648,
                    -0.44433,
                    4.832
                ]
            ],
            [
                [
                    3.78465,
                    -0.91256,
                    -0.47795
                ],
                [
                    -0.57868,
                    4.7409,
                    -0.22901
                ],
                [
                    -0.09648,
                    -0.44433,
                    4.832
                ]
            ],
            [
                [
                    3.78465,
                    0.91256,
                    -0.47795
                ],
                [
                    0.57868,
                    4.7409,
                    0.22902
                ],
                [
                    -0.09648,
                    0.44433,
                    4.832
                ]
            ],
            [
                [
                    3.78465,
                    -0.91256,
                    0.47795
                ],
                [
                    -0.57868,
                    4.7409,
                    0.22902
                ],
                [
                    0.09648,
                    0.44433,
                    4.832
                ]
            ],
            [
                [
                    -2.1885,
                    0.19392,
                    0.26155
                ],
                [
                    0.47851,
                    -2.98251,
                    -0.26727
                ],
                [
                    0.22274,
                    0.1362,
                    -2.99474
                ]
            ],
            [
                [
                    -2.18849,
                    0.19392,
                    -0.26155
                ],
                [
                    0.47851,
                    -2.98251,
                    0.26726
                ],
                [
                    -0.22274,
                    -0.1362,
                    -2.99474
                ]
            ],
            [
                [
                    -4.40836,
                    -1.16327,
                    0.57277
                ],
                [
                    -1.12649,
                    -2.25907,
                    -0.27619
                ],
                [
                    0.2931,
                    -0.36763,
                    -2.19187
                ]
            ],
            [
                [
                    -2.18849,
                    -0.19392,
                    -0.26155
                ],
                [
                    -0.47851,
                    -2.98251,
                    -0.26727
                ],
                [
                    -0.22274,
                    0.1362,
                    -2.99474
                ]
            ],
            [
                [
                    -1.811,
                    -0.03867,
                    0.11204
                ],
                [
                    -0.01785,
                    -3.48552,
                    1.74173
                ],
                [
                    0.1175,
                    1.84722,
                    -3.56813
                ]
            ],
            [
                [
                    -1.67418,
                    0.00657,
                    0.05443
                ],
                [
                    0.05625,
                    -3.92329,
                    2.22218
                ],
                [
                    -0.09932,
                    2.25755,
                    -3.70611
                ]
            ],
            [
                [
                    -2.1885,
                    -0.19392,
                    0.26155
                ],
                [
                    -0.47851,
                    -2.98251,
                    0.26726
                ],
                [
                    0.22274,
                    -0.1362,
                    -2.99474
                ]
            ],
            [
                [
                    -4.40836,
                    1.16327,
                    0.57277
                ],
                [
                    1.1265,
                    -2.25908,
                    0.27618
                ],
                [
                    0.2931,
                    0.36763,
                    -2.19187
                ]
            ],
            [
                [
                    -1.67418,
                    -0.00657,
                    0.05443
                ],
                [
                    -0.05625,
                    -3.92329,
                    -2.22217
                ],
                [
                    -0.09932,
                    -2.25755,
                    -3.70611
                ]
            ],
            [
                [
                    -4.40836,
                    -1.16327,
                    -0.57278
                ],
                [
                    -1.1265,
                    -2.25908,
                    0.27618
                ],
                [
                    -0.2931,
                    0.36763,
                    -2.19187
                ]
            ],
            [
                [
                    -1.81099,
                    -0.03867,
                    -0.11203
                ],
                [
                    -0.01786,
                    -3.48552,
                    -1.74173
                ],
                [
                    -0.1175,
                    -1.84722,
                    -3.56813
                ]
            ],
            [
                [
                    -1.81099,
                    0.03867,
                    -0.11203
                ],
                [
                    0.01785,
                    -3.48552,
                    1.74173
                ],
                [
                    -0.1175,
                    1.84722,
                    -3.56813
                ]
            ],
            [
                [
                    -1.811,
                    0.03867,
                    0.11204
                ],
                [
                    0.01786,
                    -3.48552,
                    -1.74173
                ],
                [
                    0.1175,
                    -1.84722,
                    -3.56813
                ]
            ],
            [
                [
                    -5.24304,
                    -0.0,
                    0.0
                ],
                [
                    0.0,
                    -2.11543,
                    0.00572
                ],
                [
                    0.0,
                    -0.05036,
                    -1.99338
                ]
            ],
            [
                [
                    -4.40836,
                    1.16327,
                    -0.57278
                ],
                [
                    1.12649,
                    -2.25907,
                    -0.27619
                ],
                [
                    -0.2931,
                    -0.36763,
                    -2.19187
                ]
            ],
            [
                [
                    -5.24304,
                    0.0,
                    0.0
                ],
                [
                    0.0,
                    -2.11543,
                    -0.00571
                ],
                [
                    0.0,
                    0.05036,
                    -1.99338
                ]
            ],
            [
                [
                    -1.67418,
                    -0.00657,
                    -0.05443
                ],
                [
                    -0.05625,
                    -3.92329,
                    2.22218
                ],
                [
                    0.09932,
                    2.25755,
                    -3.70611
                ]
            ],
            [
                [
                    -1.67418,
                    0.00657,
                    -0.05443
                ],
                [
                    0.05625,
                    -3.92329,
                    -2.22217
                ],
                [
                    0.09932,
                    -2.25755,
                    -3.70611
                ]
            ]
        ]
    },
    "band_gap": 2.6698,
    "is_direct": false,
    "formula": "SrTa2Bi2O9"
}