{
    "mp_id": "mp-21084",
    "nelements": 4,
    "nsites": 17,
    "elements": [
        "Ga",
        "In",
        "O",
        "Pt"
    ],
    "structure": {
        "@module": "pymatgen.core.structure",
        "@class": "Structure",
        "charge": null,
        "lattice": {
            "matrix": [
                [
                    0.0,
                    5.0187896,
                    5.0187896
                ],
                [
                    5.0187896,
                    0.0,
                    5.0187896
                ],
                [
                    5.0187896,
                    5.0187896,
                    0.0
                ]
            ],
            "a": 7.0976403190170405,
            "b": 7.0976403190170405,
            "c": 7.0976403190170405,
            "alpha": 60.00000000000001,
            "beta": 60.00000000000001,
            "gamma": 60.00000000000001,
            "volume": 252.82904473934633
        },
        "sites": [
            {
                "species": [
                    {
                        "element": "In",
                        "occu": 1
                    }
                ],
                "abc": [
                    0.74816898,
                    0.74816898,
                    0.25183102
                ],
                "xyz": [
                    5.0187896,
                    5.0187896,
                    7.509805391733216
                ],
                "label": "In",
                "properties": {}
            },
            {
                "species": [
                    {
                        "element": "In",
                        "occu": 1
                    }
                ],
                "abc": [
                    0.74816898,
                    0.25183102,
                    0.74816898
                ],
                "xyz": [
                    5.0187896,
                    7.509805391733216,
                    5.0187896
                ],
                "label": "In",
                "properties": {}
            },
            {
                "species": [
                    {
                        "element": "In",
                        "occu": 1
                    }
                ],
                "abc": [
                    0.25183102,
                    0.74816898,
                    0.25183102
                ],
                "xyz": [
                    5.0187896,
                    2.527773808266784,
                    5.0187896
                ],
                "label": "In",
                "properties": {}
            },
            {
                "species": [
                    {
                        "element": "In",
                        "occu": 1
                    }
                ],
                "abc": [
                    0.74816898,
                    0.25183102,
                    0.25183102
                ],
                "xyz": [
                    2.527773808266784,
                    5.0187896,
                    5.0187896
                ],
                "label": "In",
                "properties": {}
            },
            {
                "species": [
                    {
                        "element": "In",
                        "occu": 1
                    }
                ],
                "abc": [
                    0.25183102,
                    0.74816898,
                    0.74816898
                ],
                "xyz": [
                    7.509805391733216,
                    5.0187896,
                    5.0187896
                ],
                "label": "In",
                "properties": {}
            },
            {
                "species": [
                    {
                        "element": "In",
                        "occu": 1
                    }
                ],
                "abc": [
                    0.25183102,
                    0.25183102,
                    0.74816898
                ],
                "xyz": [
                    5.0187896,
                    5.0187896,
                    2.527773808266784
                ],
                "label": "In",
                "properties": {}
            },
            {
                "species": [
                    {
                        "element": "Ga",
                        "occu": 1
                    }
                ],
                "abc": [
                    0.25,
                    0.25,
                    0.25
                ],
                "xyz": [
                    2.5093948,
                    2.5093948,
                    2.5093948
                ],
                "label": "Ga",
                "properties": {}
            },
            {
                "species": [
                    {
                        "element": "Ga",
                        "occu": 1
                    }
                ],
                "abc": [
                    0.75,
                    0.75,
                    0.75
                ],
                "xyz": [
                    7.5281844,
                    7.5281844,
                    7.5281844
                ],
                "label": "Ga",
                "properties": {}
            },
            {
                "species": [
                    {
                        "element": "Pt",
                        "occu": 1
                    }
                ],
                "abc": [
                    0.0,
                    0.0,
                    0.0
                ],
                "xyz": [
                    0.0,
                    0.0,
                    0.0
                ],
                "label": "Pt",
                "properties": {}
            },
            {
                "species": [
                    {
                        "element": "O",
                        "occu": 1
                    }
                ],
                "abc": [
                    0.35864614,
                    0.92406258,
                    0.35864614
                ],
                "xyz": [
                    6.437645183765312,
                    3.599939035024288,
                    6.437645183765312
                ],
                "label": "O",
                "properties": {}
            },
            {
                "species": [
                    {
                        "element": "O",
                        "occu": 1
                    }
                ],
                "abc": [
                    0.64135386,
                    0.64135386,
                    0.07593742
                ],
                "xyz": [
                    3.599934016234688,
                    3.599934016234688,
                    6.437640164975712
                ],
                "label": "O",
                "properties": {}
            },
            {
                "species": [
                    {
                        "element": "O",
                        "occu": 1
                    }
                ],
                "abc": [
                    0.64135386,
                    0.64135386,
                    0.64135386
                ],
                "xyz": [
                    6.437640164975712,
                    6.437640164975712,
                    6.437640164975712
                ],
                "label": "O",
                "properties": {}
            },
            {
                "species": [
                    {
                        "element": "O",
                        "occu": 1
                    }
                ],
                "abc": [
                    0.07593742,
                    0.64135386,
                    0.64135386
                ],
                "xyz": [
                    6.437640164975712,
                    3.599934016234688,
                    3.599934016234688
                ],
                "label": "O",
                "properties": {}
            },
            {
                "species": [
                    {
                        "element": "O",
                        "occu": 1
                    }
                ],
                "abc": [
                    0.35864614,
                    0.35864614,
                    0.35864614
                ],
                "xyz": [
                    3.599939035024288,
                    3.599939035024288,
                    3.599939035024288
                ],
                "label": "O",
                "properties": {}
            },
            {
                "species": [
                    {
                        "element": "O",
                        "occu": 1
                    }
                ],
                "abc": [
                    0.92406258,
                    0.35864614,
                    0.35864614
                ],
                "xyz": [
                    3.599939035024288,
                    6.437645183765312,
                    6.437645183765312
                ],
                "label": "O",
                "properties": {}
            },
            {
                "species": [
                    {
                        "element": "O",
                        "occu": 1
                    }
                ],
                "abc": [
                    0.35864614,
                    0.35864614,
                    0.92406258
                ],
                "xyz": [
                    6.437645183765312,
                    6.437645183765312,
                    3.599939035024288
                ],
                "label": "O",
                "properties": {}
            },
            {
                "species": [
                    {
                        "element": "O",
                        "occu": 1
                    }
                ],
                "abc": [
                    0.64135386,
                    0.07593742,
                    0.64135386
                ],
                "xyz": [
                    3.599934016234688,
                    6.437640164975712,
                    3.599934016234688
                ],
                "label": "O",
                "properties": {}
            }
        ]
    },
    "spacegroup": {
        "source": "spglib",
        "symbol": "Fm-3m",
        "number": 225,
        "point_group": "m-3m",
        "crystal_system": "cubic",
        "hall": "-F 4 2 3"
    },
    "dielectric": {
        "epsilon_ionic": [
            [
                7.02926389,
                3e-08,
                3e-08
            ],
            [
                3e-08,
                7.02925698,
                -2e-08
            ],
            [
                3e-08,
                -2e-08,
                7.02883424
            ]
        ],
        "epsilon_ionic_avg": 7.02911837,
        "epsilon_ionic_eig": [
            7.029263890132326,
            7.02883423999696,
            7.0292569798707145
        ],
        "epsilon_electronic": [
            [
                8.16621769,
                -0.0,
                -0.0
            ],
            [
                0.0,
                8.16621769,
                -0.0
            ],
            [
                -0.0,
                0.0,
                8.16621769
            ]
        ],
        "epsilon_electronic_avg": 8.16621769,
        "epsilon_electronic_eig": [
            8.16621769,
            8.16621769,
            8.16621769
        ]
    },
    "phonon": {
        "lowest_freq": -0.030427648421594847,
        "frequency": [
            -0.030427648421594847,
            -0.030427648421594847,
            -0.030427648421594847,
            2.0592015138824324,
            2.0592015138824324,
            2.0592015138824324,
            3.175254846232656,
            3.175254846232656,
            3.175254846232656,
            3.3225364388282967,
            3.3225364388282967,
            3.3225364388282967,
            3.5005682003165965,
            3.5005682003165965,
            3.5005682003165965,
            5.30556620107606,
            5.30556620107606,
            6.333037364807444,
            6.333037364807444,
            6.333037364807444,
            6.865062429016349,
            6.865062429016349,
            6.865062429016349,
            7.349124499382455,
            7.349124499382455,
            7.349124499382455,
            7.707064009011658,
            9.46478644556396,
            9.46478644556396,
            9.46478644556396,
            10.583040973644916,
            10.583040973644916,
            11.082820255050272,
            11.082820255050272,
            11.082820255050272,
            11.921994501643082,
            11.921994501643082,
            11.921994501643082,
            12.368601016427446,
            12.368601016427446,
            12.368601016427446,
            13.603184995764249,
            13.603184995764249,
            14.723147729069913,
            14.723147729069913,
            14.723147729069913,
            16.353025809514286,
            16.353025809514286,
            16.353025809514286,
            16.63199543190193,
            18.47854590226659
        ]
    },
    "born_effective_charge": {
        "avg_abs_trace": 2.8364037254901966,
        "tensors": [
            [
                [
                    2.89269,
                    -0.0,
                    -0.00032
                ],
                [
                    0.0,
                    2.89267,
                    0.00011
                ],
                [
                    -0.0,
                    0.0,
                    3.51143
                ]
            ],
            [
                [
                    2.89269,
                    -0.00032,
                    -0.0
                ],
                [
                    0.0,
                    3.51149,
                    0.0
                ],
                [
                    -0.0,
                    7e-05,
                    2.89262
                ]
            ],
            [
                [
                    2.89269,
                    0.00032,
                    -0.0
                ],
                [
                    0.0,
                    3.51248,
                    0.0
                ],
                [
                    -0.0,
                    -7e-05,
                    2.89262
                ]
            ],
            [
                [
                    3.51159,
                    -0.0,
                    -0.0
                ],
                [
                    -0.00011,
                    2.89267,
                    0.0
                ],
                [
                    -7e-05,
                    0.0,
                    2.89262
                ]
            ],
            [
                [
                    3.51236,
                    -0.0,
                    -0.0
                ],
                [
                    0.00011,
                    2.89267,
                    0.0
                ],
                [
                    7e-05,
                    0.0,
                    2.89262
                ]
            ],
            [
                [
                    2.89269,
                    -0.0,
                    0.00032
                ],
                [
                    0.0,
                    2.89267,
                    -0.00011
                ],
                [
                    -0.0,
                    0.0,
                    3.51237
                ]
            ],
            [
                [
                    2.75745,
                    -0.0,
                    -0.0
                ],
                [
                    0.0,
                    2.75749,
                    0.0
                ],
                [
                    -0.0,
                    0.0,
                    2.75737
                ]
            ],
            [
                [
                    2.75745,
                    -0.0,
                    -0.0
                ],
                [
                    0.0,
                    2.75749,
                    0.0
                ],
                [
                    -0.0,
                    0.0,
                    2.75737
                ]
            ],
            [
                [
                    -2.43534,
                    -0.0,
                    -0.0
                ],
                [
                    0.0,
                    -2.4353,
                    0.0
                ],
                [
                    -0.0,
                    0.0,
                    -2.43541
                ]
            ],
            [
                [
                    -2.70951,
                    -0.1696,
                    0.1696
                ],
                [
                    -0.16968,
                    -2.70952,
                    -0.16968
                ],
                [
                    0.16924,
                    -0.16924,
                    -2.70904
                ]
            ],
            [
                [
                    -2.70907,
                    0.1694,
                    -0.1694
                ],
                [
                    0.16968,
                    -2.70952,
                    -0.16968
                ],
                [
                    -0.16924,
                    -0.16924,
                    -2.70904
                ]
            ],
            [
                [
                    -2.70951,
                    0.1696,
                    0.1696
                ],
                [
                    0.1693,
                    -2.70907,
                    0.1693
                ],
                [
                    0.16924,
                    0.16924,
                    -2.70904
                ]
            ],
            [
                [
                    -2.70951,
                    -0.1696,
                    -0.1696
                ],
                [
                    -0.16968,
                    -2.70952,
                    0.16968
                ],
                [
                    -0.16968,
                    0.16968,
                    -2.70936
                ]
            ],
            [
                [
                    -2.70907,
                    0.1694,
                    0.1694
                ],
                [
                    0.16968,
                    -2.70952,
                    0.16968
                ],
                [
                    0.16968,
                    0.16968,
                    -2.70936
                ]
            ],
            [
                [
                    -2.70907,
                    -0.1694,
                    -0.1694
                ],
                [
                    -0.1693,
                    -2.70907,
                    0.1693
                ],
                [
                    -0.16924,
                    0.16924,
                    -2.70904
                ]
            ],
            [
                [
                    -2.70951,
                    0.1696,
                    -0.1696
                ],
                [
                    0.1693,
                    -2.70907,
                    -0.1693
                ],
                [
                    -0.16968,
                    -0.16968,
                    -2.70936
                ]
            ],
            [
                [
                    -2.70907,
                    -0.1694,
                    0.1694
                ],
                [
                    -0.1693,
                    -2.70907,
                    -0.1693
                ],
                [
                    0.16968,
                    -0.16968,
                    -2.70936
                ]
            ]
        ]
    },
    "band_gap": 0.6682000000000006,
    "is_direct": false,
    "formula": "In6Ga2PtO8"
}