{
    "mp_id": "mp-27228",
    "nelements": 3,
    "nsites": 30,
    "elements": [
        "O",
        "Si",
        "Tl"
    ],
    "structure": {
        "@module": "pymatgen.core.structure",
        "@class": "Structure",
        "charge": null,
        "lattice": {
            "matrix": [
                [
                    9.60687557,
                    7e-07,
                    0.0
                ],
                [
                    -4.8034389,
                    8.31979827,
                    0.0
                ],
                [
                    0.0,
                    0.0,
                    7.94418374
                ]
            ],
            "a": 9.606875570000025,
            "b": 9.606876106181874,
            "c": 7.94418374,
            "alpha": 90.0,
            "beta": 90.0,
            "gamma": 120.00000165756343,
            "volume": 634.9569195888491
        },
        "sites": [
            {
                "species": [
                    {
                        "element": "Tl",
                        "occu": 1
                    }
                ],
                "abc": [
                    0.03577426,
                    0.34973206,
                    0.36791431
                ],
                "xyz": [
                    -1.3362377171523057,
                    2.909700212793518,
                    2.9227788792153193
                ],
                "label": "Tl",
                "properties": {}
            },
            {
                "species": [
                    {
                        "element": "Tl",
                        "occu": 1
                    }
                ],
                "abc": [
                    0.3139568,
                    0.96422574,
                    0.36791431
                ],
                "xyz": [
                    -1.6154555159419104,
                    8.02216386331123,
                    2.9227788792153193
                ],
                "label": "Tl",
                "properties": {}
            },
            {
                "species": [
                    {
                        "element": "Tl",
                        "occu": 1
                    }
                ],
                "abc": [
                    0.65026794,
                    0.6860432,
                    0.36791431
                ],
                "xyz": [
                    2.951676592779746,
                    5.707741483692821,
                    2.9227788792153193
                ],
                "label": "Tl",
                "properties": {}
            },
            {
                "species": [
                    {
                        "element": "Tl",
                        "occu": 1
                    }
                ],
                "abc": [
                    0.96422574,
                    0.65026794,
                    0.63208569
                ],
                "xyz": [
                    6.139674387152306,
                    5.410098757206482,
                    5.02140486078468
                ],
                "label": "Tl",
                "properties": {}
            },
            {
                "species": [
                    {
                        "element": "Tl",
                        "occu": 1
                    }
                ],
                "abc": [
                    0.6860432,
                    0.03577426,
                    0.63208569
                ],
                "xyz": [
                    6.4188921859419095,
                    0.29763510668877025,
                    5.02140486078468
                ],
                "label": "Tl",
                "properties": {}
            },
            {
                "species": [
                    {
                        "element": "Tl",
                        "occu": 1
                    }
                ],
                "abc": [
                    0.34973206,
                    0.3139568,
                    0.63208569
                ],
                "xyz": [
                    1.8517600772202543,
                    2.6120574863071777,
                    5.02140486078468
                ],
                "label": "Tl",
                "properties": {}
            },
            {
                "species": [
                    {
                        "element": "Tl",
                        "occu": 1
                    }
                ],
                "abc": [
                    0.05034287,
                    0.35452216,
                    0.88010878
                ],
                "xyz": [
                    -1.219287846329338,
                    2.9495528886846722,
                    6.991745859507237
                ],
                "label": "Tl",
                "properties": {}
            },
            {
                "species": [
                    {
                        "element": "Tl",
                        "occu": 1
                    }
                ],
                "abc": [
                    0.30417929,
                    0.94965713,
                    0.88010878
                ],
                "xyz": [
                    -1.639407409903412,
                    7.900955960192667,
                    6.991745859507237
                ],
                "label": "Tl",
                "properties": {}
            },
            {
                "species": [
                    {
                        "element": "Tl",
                        "occu": 1
                    }
                ],
                "abc": [
                    0.64547784,
                    0.69582071,
                    0.88010878
                ],
                "xyz": [
                    2.8586930262327495,
                    5.78908839112266,
                    6.991745859507237
                ],
                "label": "Tl",
                "properties": {}
            },
            {
                "species": [
                    {
                        "element": "Tl",
                        "occu": 1
                    }
                ],
                "abc": [
                    0.94965713,
                    0.64547784,
                    0.11989122
                ],
                "xyz": [
                    6.022724516329338,
                    5.370246081315328,
                    0.9524378804927628
                ],
                "label": "Tl",
                "properties": {}
            },
            {
                "species": [
                    {
                        "element": "Tl",
                        "occu": 1
                    }
                ],
                "abc": [
                    0.69582071,
                    0.05034287,
                    0.11989122
                ],
                "xyz": [
                    6.442844079903412,
                    0.41884300980733186,
                    0.9524378804927628
                ],
                "label": "Tl",
                "properties": {}
            },
            {
                "species": [
                    {
                        "element": "Tl",
                        "occu": 1
                    }
                ],
                "abc": [
                    0.35452216,
                    0.30417929,
                    0.11989122
                ],
                "xyz": [
                    1.9447436437672498,
                    2.5307105788773403,
                    0.9524378804927628
                ],
                "label": "Tl",
                "properties": {}
            },
            {
                "species": [
                    {
                        "element": "Si",
                        "occu": 1
                    }
                ],
                "abc": [
                    0.333333,
                    0.666667,
                    0.16612223
                ],
                "xyz": [
                    -5.546771490116953e-06,
                    5.54653518659919,
                    1.3197055184185402
                ],
                "label": "Si",
                "properties": {}
            },
            {
                "species": [
                    {
                        "element": "Si",
                        "occu": 1
                    }
                ],
                "abc": [
                    0.666667,
                    0.333333,
                    0.41536446
                ],
                "xyz": [
                    4.80344221677149,
                    2.7732637834008096,
                    3.29973158930588
                ],
                "label": "Si",
                "properties": {}
            },
            {
                "species": [
                    {
                        "element": "Si",
                        "occu": 1
                    }
                ],
                "abc": [
                    0.333333,
                    0.666667,
                    0.58463554
                ],
                "xyz": [
                    -5.546771490116953e-06,
                    5.54653518659919,
                    4.644452150694119
                ],
                "label": "Si",
                "properties": {}
            },
            {
                "species": [
                    {
                        "element": "Si",
                        "occu": 1
                    }
                ],
                "abc": [
                    0.666667,
                    0.333333,
                    0.83387777
                ],
                "xyz": [
                    4.80344221677149,
                    2.7732637834008096,
                    6.624478221581459
                ],
                "label": "Si",
                "properties": {}
            },
            {
                "species": [
                    {
                        "element": "O",
                        "occu": 1
                    }
                ],
                "abc": [
                    0.85435445,
                    0.44945073,
                    0.88925084
                ],
                "xyz": [
                    6.048767773710389,
                    3.739340003952352,
                    7.0643720639093415
                ],
                "label": "O",
                "properties": {}
            },
            {
                "species": [
                    {
                        "element": "O",
                        "occu": 1
                    }
                ],
                "abc": [
                    0.55054927,
                    0.40490372,
                    0.88925084
                ],
                "xyz": [
                    3.3441280526416253,
                    3.3687176545570536,
                    7.0643720639093415
                ],
                "label": "O",
                "properties": {}
            },
            {
                "species": [
                    {
                        "element": "O",
                        "occu": 1
                    }
                ],
                "abc": [
                    0.59509628,
                    0.14564555,
                    0.88925084
                ],
                "xyz": [
                    5.017416413647984,
                    1.2117420114905946,
                    7.0643720639093415
                ],
                "label": "O",
                "properties": {}
            },
            {
                "species": [
                    {
                        "element": "O",
                        "occu": 1
                    }
                ],
                "abc": [
                    0.40490372,
                    0.85435445,
                    0.11074916
                ],
                "xyz": [
                    -0.21397974364798422,
                    7.108056958509405,
                    0.8798116760906584
                ],
                "label": "O",
                "properties": {}
            },
            {
                "species": [
                    {
                        "element": "O",
                        "occu": 1
                    }
                ],
                "abc": [
                    0.666667,
                    0.333333,
                    0.6244866
                ],
                "xyz": [
                    4.80344221677149,
                    2.7732637834008096,
                    4.961036293567884
                ],
                "label": "O",
                "properties": {}
            },
            {
                "species": [
                    {
                        "element": "O",
                        "occu": 1
                    }
                ],
                "abc": [
                    0.333333,
                    0.666667,
                    0.3755134
                ],
                "xyz": [
                    -5.546771490116953e-06,
                    5.54653518659919,
                    2.983147446432116
                ],
                "label": "O",
                "properties": {}
            },
            {
                "species": [
                    {
                        "element": "O",
                        "occu": 1
                    }
                ],
                "abc": [
                    0.60087719,
                    0.14656692,
                    0.35945941
                ],
                "xyz": [
                    5.06852715220006,
                    1.2194076280692612,
                    2.855611600111993
                ],
                "label": "O",
                "properties": {}
            },
            {
                "species": [
                    {
                        "element": "O",
                        "occu": 1
                    }
                ],
                "abc": [
                    0.54568972,
                    0.39912281,
                    0.35945941
                ],
                "xyz": [
                    3.325211208436832,
                    3.3206216461383424,
                    2.855611600111993
                ],
                "label": "O",
                "properties": {}
            },
            {
                "species": [
                    {
                        "element": "O",
                        "occu": 1
                    }
                ],
                "abc": [
                    0.85343308,
                    0.45431028,
                    0.35945941
                ],
                "xyz": [
                    6.016573735259964,
                    3.7797704789903714,
                    2.855611600111993
                ],
                "label": "O",
                "properties": {}
            },
            {
                "species": [
                    {
                        "element": "O",
                        "occu": 1
                    }
                ],
                "abc": [
                    0.39912281,
                    0.85343308,
                    0.64054059
                ],
                "xyz": [
                    -0.26509048220006015,
                    7.100391341930738,
                    5.088572139888006
                ],
                "label": "O",
                "properties": {}
            },
            {
                "species": [
                    {
                        "element": "O",
                        "occu": 1
                    }
                ],
                "abc": [
                    0.45431028,
                    0.60087719,
                    0.64054059
                ],
                "xyz": [
                    1.4782254615631687,
                    4.999177323861656,
                    5.088572139888006
                ],
                "label": "O",
                "properties": {}
            },
            {
                "species": [
                    {
                        "element": "O",
                        "occu": 1
                    }
                ],
                "abc": [
                    0.14656692,
                    0.54568972,
                    0.64054059
                ],
                "xyz": [
                    -1.2131370652599636,
                    4.540028491009629,
                    5.088572139888006
                ],
                "label": "O",
                "properties": {}
            },
            {
                "species": [
                    {
                        "element": "O",
                        "occu": 1
                    }
                ],
                "abc": [
                    0.14564555,
                    0.55054927,
                    0.11074916
                ],
                "xyz": [
                    -1.245331103710389,
                    4.580458966047647,
                    0.8798116760906584
                ],
                "label": "O",
                "properties": {}
            },
            {
                "species": [
                    {
                        "element": "O",
                        "occu": 1
                    }
                ],
                "abc": [
                    0.44945073,
                    0.59509628,
                    0.11074916
                ],
                "xyz": [
                    1.4593086173583747,
                    4.951081315442947,
                    0.8798116760906584
                ],
                "label": "O",
                "properties": {}
            }
        ]
    },
    "spacegroup": {
        "source": "spglib",
        "symbol": "P-3",
        "number": 147,
        "point_group": "-3",
        "crystal_system": "trigonal",
        "hall": "-P 3"
    },
    "dielectric": {
        "epsilon_ionic": [
            [
                5.35535737,
                0.00037694,
                -0.00446095
            ],
            [
                0.00037694,
                5.354977,
                -0.00138911
            ],
            [
                -0.00446095,
                -0.00138911,
                10.83712252
            ]
        ],
        "epsilon_ionic_avg": 7.182485629999998,
        "epsilon_ionic_eig": [
            10.837126502367607,
            5.355585648698699,
            5.354744738933687
        ],
        "epsilon_electronic": [
            [
                4.96245827,
                1.29e-06,
                0.0
            ],
            [
                -1.29e-06,
                4.96245867,
                0.0
            ],
            [
                0.0,
                -0.0,
                4.95118601
            ]
        ],
        "epsilon_electronic_avg": 4.958700983333333,
        "epsilon_electronic_eig": [
            4.96245847,
            4.96245847,
            4.95118601
        ]
    },
    "phonon": {
        "lowest_freq": -0.08237008844344386,
        "frequency": [
            -0.08237008844344386,
            -0.08237008517963591,
            -0.07031768091089081,
            0.47063942802630493,
            0.854677664617181,
            0.9312508815251882,
            0.9312508907106878,
            1.0321093430180222,
            1.0589303296192094,
            1.0589303400051675,
            1.0864937988588588,
            1.2222276374777905,
            1.222227653474819,
            1.2426030440236224,
            1.2426030489407223,
            1.309569369394894,
            1.309569383391869,
            1.343090229067535,
            1.3574510940771651,
            1.3574510967778164,
            1.4215416052265946,
            1.421541610384378,
            1.620132232279093,
            1.644864220041244,
            1.7182946904680643,
            1.7182946904680643,
            2.1620015525992535,
            2.1620015921644633,
            2.237647903556347,
            2.260175589970103,
            2.2601756061900904,
            2.3158714256340334,
            2.3238185847040365,
            2.4484119721869826,
            2.448412007123932,
            2.7723850801137297,
            2.7723851197835647,
            3.0024539692527417,
            3.0531110443933267,
            3.053111084418096,
            3.4284990255119605,
            3.943944244660296,
            4.646620125917378,
            4.6466202363719145,
            4.6889248791800355,
            4.688925001668733,
            5.296885271525873,
            5.29688543301709,
            5.732921852869083,
            5.767129642260983,
            5.767129811773473,
            6.211584744842661,
            6.527233317646956,
            6.7891075583616685,
            8.723520342920486,
            8.723520440977282,
            8.789489237436017,
            8.789489334756855,
            9.100416866811774,
            9.1118982138188,
            10.551552541990453,
            10.551552680965335,
            10.953363597020381,
            10.953363786679118,
            12.62127724496353,
            12.656090013579632,
            12.997095366638383,
            12.997095517072074,
            12.998213492181256,
            12.998213642602005,
            13.635757790254734,
            13.635758032221611,
            13.932028578009833,
            13.932028797288856,
            17.49691361092398,
            17.511737423545448,
            23.621550782912504,
            23.62704387157393,
            25.40019644341998,
            25.512642030155035,
            26.365115306100382,
            26.365116047686755,
            26.483193066614263,
            26.483193804894203,
            26.520982004907726,
            26.520982742135715,
            27.301842315139538,
            27.30184307604097,
            30.368557464989294,
            30.368934824071157
        ]
    },
    "born_effective_charge": {
        "avg_abs_trace": 2.2099397777777776,
        "tensors": [
            [
                [
                    1.63549,
                    -0.13969,
                    0.01829
                ],
                [
                    -0.15673,
                    1.67035,
                    0.01103
                ],
                [
                    -0.03446,
                    0.03416,
                    1.66699
                ]
            ],
            [
                [
                    1.78987,
                    0.0689,
                    -0.00012
                ],
                [
                    0.04775,
                    1.516,
                    -0.02379
                ],
                [
                    0.04682,
                    0.01277,
                    1.66699
                ]
            ],
            [
                [
                    1.53309,
                    0.09699,
                    -0.02379
                ],
                [
                    0.0816,
                    1.7718,
                    0.01011
                ],
                [
                    -0.01235,
                    -0.04693,
                    1.66699
                ]
            ],
            [
                [
                    1.63556,
                    -0.13964,
                    0.01816
                ],
                [
                    -0.15656,
                    1.67035,
                    0.01094
                ],
                [
                    -0.03395,
                    0.03407,
                    1.66712
                ]
            ],
            [
                [
                    1.78977,
                    0.06883,
                    -0.00013
                ],
                [
                    0.04804,
                    1.51618,
                    -0.02364
                ],
                [
                    0.04648,
                    0.01237,
                    1.66712
                ]
            ],
            [
                [
                    1.53311,
                    0.09694,
                    -0.02376
                ],
                [
                    0.08164,
                    1.77184,
                    0.01009
                ],
                [
                    -0.01253,
                    -0.04644,
                    1.66712
                ]
            ],
            [
                [
                    1.33979,
                    -0.44025,
                    -0.0134
                ],
                [
                    -0.3974,
                    1.66895,
                    -0.02605
                ],
                [
                    0.04231,
                    -0.03252,
                    1.7659
                ]
            ],
            [
                [
                    1.9491,
                    0.0417,
                    -0.01303
                ],
                [
                    0.09118,
                    1.05944,
                    0.02515
                ],
                [
                    -0.04932,
                    -0.02038,
                    1.7659
                ]
            ],
            [
                [
                    1.22334,
                    0.32889,
                    0.02928
                ],
                [
                    0.37584,
                    1.7839,
                    0.00197
                ],
                [
                    0.00701,
                    0.05291,
                    1.7659
                ]
            ],
            [
                [
                    1.33993,
                    -0.44034,
                    -0.01372
                ],
                [
                    -0.39735,
                    1.66899,
                    -0.02615
                ],
                [
                    0.04309,
                    -0.03296,
                    1.76573
                ]
            ],
            [
                [
                    1.94917,
                    0.04172,
                    -0.01299
                ],
                [
                    0.09118,
                    1.05951,
                    0.02538
                ],
                [
                    -0.05009,
                    -0.02084,
                    1.76573
                ]
            ],
            [
                [
                    1.22342,
                    0.32884,
                    0.02955
                ],
                [
                    0.37582,
                    1.78401,
                    0.00187
                ],
                [
                    0.007,
                    0.0538,
                    1.76573
                ]
            ],
            [
                [
                    3.77562,
                    0.20129,
                    1e-05
                ],
                [
                    -0.20181,
                    3.7761,
                    0.00018
                ],
                [
                    0.0,
                    0.0,
                    2.67961
                ]
            ],
            [
                [
                    3.72867,
                    0.29835,
                    0.00039
                ],
                [
                    -0.29852,
                    3.72907,
                    0.00024
                ],
                [
                    0.0,
                    0.0,
                    2.79424
                ]
            ],
            [
                [
                    3.72866,
                    0.29861,
                    0.0004
                ],
                [
                    -0.29893,
                    3.72902,
                    0.00016
                ],
                [
                    0.0,
                    0.0,
                    2.79431
                ]
            ],
            [
                [
                    3.77573,
                    0.20171,
                    -4e-05
                ],
                [
                    -0.20218,
                    3.77612,
                    0.00026
                ],
                [
                    0.0,
                    0.0,
                    2.67993
                ]
            ],
            [
                [
                    -2.69713,
                    -0.2587,
                    -0.21242
                ],
                [
                    -0.20586,
                    -2.38277,
                    -0.24998
                ],
                [
                    -0.23036,
                    -0.30782,
                    -1.98734
                ]
            ],
            [
                [
                    -2.66259,
                    0.22642,
                    0.32356
                ],
                [
                    0.279,
                    -2.41747,
                    -0.05897
                ],
                [
                    0.38176,
                    -0.04559,
                    -1.98734
                ]
            ],
            [
                [
                    -2.26016,
                    -0.0461,
                    -0.10972
                ],
                [
                    0.00628,
                    -2.82,
                    0.30963
                ],
                [
                    -0.1514,
                    0.35341,
                    -1.98734
                ]
            ],
            [
                [
                    -2.26001,
                    -0.04615,
                    -0.10985
                ],
                [
                    0.00608,
                    -2.81981,
                    0.30952
                ],
                [
                    -0.15182,
                    0.35274,
                    -1.98698
                ]
            ],
            [
                [
                    -1.81812,
                    -0.15295,
                    0.0004
                ],
                [
                    0.1529,
                    -1.81837,
                    9e-05
                ],
                [
                    0.0,
                    0.0,
                    -3.63896
                ]
            ],
            [
                [
                    -1.8181,
                    -0.15308,
                    0.0004
                ],
                [
                    0.15307,
                    -1.81841,
                    8e-05
                ],
                [
                    0.0,
                    0.0,
                    -3.63883
                ]
            ],
            [
                [
                    -2.24392,
                    -0.1472,
                    0.12903
                ],
                [
                    0.00298,
                    -2.78096,
                    -0.3385
                ],
                [
                    0.17776,
                    -0.36773,
                    -2.05739
                ]
            ],
            [
                [
                    -2.58415,
                    0.19369,
                    -0.35752
                ],
                [
                    0.34392,
                    -2.44026,
                    0.05779
                ],
                [
                    -0.40734,
                    0.02992,
                    -2.05739
                ]
            ],
            [
                [
                    -2.70891,
                    -0.27129,
                    0.22916
                ],
                [
                    -0.12146,
                    -2.31576,
                    0.28104
                ],
                [
                    0.22958,
                    0.33781,
                    -2.05739
                ]
            ],
            [
                [
                    -2.24401,
                    -0.14731,
                    0.12921
                ],
                [
                    0.00334,
                    -2.78156,
                    -0.33874
                ],
                [
                    0.17693,
                    -0.36743,
                    -2.05747
                ]
            ],
            [
                [
                    -2.58469,
                    0.19356,
                    -0.35792
                ],
                [
                    0.34444,
                    -2.44039,
                    0.05774
                ],
                [
                    -0.40667,
                    0.03049,
                    -2.05747
                ]
            ],
            [
                [
                    -2.70924,
                    -0.27182,
                    0.2293
                ],
                [
                    -0.12139,
                    -2.31598,
                    0.28133
                ],
                [
                    0.22974,
                    0.33694,
                    -2.05747
                ]
            ],
            [
                [
                    -2.69708,
                    -0.2585,
                    -0.21232
                ],
                [
                    -0.20588,
                    -2.3825,
                    -0.24997
                ],
                [
                    -0.22957,
                    -0.30785,
                    -1.98698
                ]
            ],
            [
                [
                    -2.66222,
                    0.22656,
                    0.32359
                ],
                [
                    0.27899,
                    -2.41742,
                    -0.05881
                ],
                [
                    0.3814,
                    -0.04489,
                    -1.98698
                ]
            ]
        ]
    },
    "band_gap": 1.2449999999999997,
    "is_direct": false,
    "formula": "Tl6Si2O7"
}