{
    "mp_id": "mp-2931",
    "nelements": 3,
    "nsites": 24,
    "elements": [
        "Li",
        "O",
        "Ti"
    ],
    "structure": {
        "@module": "pymatgen.core.structure",
        "@class": "Structure",
        "charge": null,
        "lattice": {
            "matrix": [
                [
                    2.54489248,
                    -4.4152884,
                    0.00037466
                ],
                [
                    2.54489248,
                    4.4152884,
                    0.00037466
                ],
                [
                    -1.7262568,
                    0.0,
                    9.59395066
                ]
            ],
            "a": 5.096199518298437,
            "b": 5.096199518298437,
            "c": 9.748017839851377,
            "alpha": 95.06927675409493,
            "beta": 95.06927675409493,
            "gamma": 120.08325638707149,
            "volume": 215.60930276289758
        },
        "sites": [
            {
                "species": [
                    {
                        "element": "Li",
                        "occu": 1
                    }
                ],
                "abc": [
                    0.68045726,
                    0.84009515,
                    0.50032445
                ],
                "xyz": [
                    3.0059539096361165,
                    0.7048473239174764,
                    4.800657777457568
                ],
                "label": "Li",
                "properties": {}
            },
            {
                "species": [
                    {
                        "element": "Li",
                        "occu": 1
                    }
                ],
                "abc": [
                    0.15990485,
                    0.31954274,
                    0.99967555
                ],
                "xyz": [
                    -0.5055541496361167,
                    0.704847323917476,
                    9.591017532542432
                ],
                "label": "Li",
                "properties": {}
            },
            {
                "species": [
                    {
                        "element": "Li",
                        "occu": 1
                    }
                ],
                "abc": [
                    0.31954274,
                    0.15990485,
                    0.49967555
                ],
                "xyz": [
                    0.35757425036388324,
                    -0.704847323917476,
                    4.794042202542433
                ],
                "label": "Li",
                "properties": {}
            },
            {
                "species": [
                    {
                        "element": "Li",
                        "occu": 1
                    }
                ],
                "abc": [
                    0.84009515,
                    0.68045726,
                    0.00032445
                ],
                "xyz": [
                    3.8690823096361164,
                    -0.7048473239174764,
                    0.0036824474575676003
                ],
                "label": "Li",
                "properties": {}
            },
            {
                "species": [
                    {
                        "element": "Li",
                        "occu": 1
                    }
                ],
                "abc": [
                    0.5,
                    0.0,
                    0.0
                ],
                "xyz": [
                    1.27244624,
                    -2.2076442,
                    0.00018733
                ],
                "label": "Li",
                "properties": {}
            },
            {
                "species": [
                    {
                        "element": "Li",
                        "occu": 1
                    }
                ],
                "abc": [
                    0.0,
                    0.5,
                    0.5
                ],
                "xyz": [
                    0.40931784000000004,
                    2.2076442,
                    4.797162660000001
                ],
                "label": "Li",
                "properties": {}
            },
            {
                "species": [
                    {
                        "element": "Li",
                        "occu": 1
                    }
                ],
                "abc": [
                    0.91546155,
                    0.08453845,
                    0.25
                ],
                "xyz": [
                    2.11332828,
                    -3.6687651247220394,
                    2.398862325
                ],
                "label": "Li",
                "properties": {}
            },
            {
                "species": [
                    {
                        "element": "Li",
                        "occu": 1
                    }
                ],
                "abc": [
                    0.08453845,
                    0.91546155,
                    0.75
                ],
                "xyz": [
                    1.25019988,
                    3.6687651247220394,
                    7.195837655000001
                ],
                "label": "Li",
                "properties": {}
            },
            {
                "species": [
                    {
                        "element": "Ti",
                        "occu": 1
                    }
                ],
                "abc": [
                    0.58259396,
                    0.41740604,
                    0.25
                ],
                "xyz": [
                    2.11332828,
                    -0.7293523069961279,
                    2.398862325
                ],
                "label": "Ti",
                "properties": {}
            },
            {
                "species": [
                    {
                        "element": "Ti",
                        "occu": 1
                    }
                ],
                "abc": [
                    0.74996389,
                    0.25003611,
                    0.75
                ],
                "xyz": [
                    1.25019988,
                    -2.207325327871752,
                    7.195837655000001
                ],
                "label": "Ti",
                "properties": {}
            },
            {
                "species": [
                    {
                        "element": "Ti",
                        "occu": 1
                    }
                ],
                "abc": [
                    0.25003611,
                    0.74996389,
                    0.25
                ],
                "xyz": [
                    2.11332828,
                    2.207325327871752,
                    2.398862325
                ],
                "label": "Ti",
                "properties": {}
            },
            {
                "species": [
                    {
                        "element": "Ti",
                        "occu": 1
                    }
                ],
                "abc": [
                    0.41740604,
                    0.58259396,
                    0.75
                ],
                "xyz": [
                    1.25019988,
                    0.7293523069961279,
                    7.195837655000001
                ],
                "label": "Ti",
                "properties": {}
            },
            {
                "species": [
                    {
                        "element": "O",
                        "occu": 1
                    }
                ],
                "abc": [
                    0.7697229,
                    0.95568036,
                    0.86699117
                ],
                "xyz": [
                    2.8943163785890293,
                    0.8210558160314645,
                    8.318516947221065
                ],
                "label": "O",
                "properties": {}
            },
            {
                "species": [
                    {
                        "element": "O",
                        "occu": 1
                    }
                ],
                "abc": [
                    0.60010898,
                    0.12293617,
                    0.36494312
                ],
                "xyz": [
                    1.210086622422256,
                    -2.1068555727884037,
                    3.5015171830823584
                ],
                "label": "O",
                "properties": {}
            },
            {
                "species": [
                    {
                        "element": "O",
                        "occu": 1
                    }
                ],
                "abc": [
                    0.04431964,
                    0.2302771,
                    0.63300883
                ],
                "xyz": [
                    -0.3939166185890287,
                    0.821055816031464,
                    6.073158362778937
                ],
                "label": "O",
                "properties": {}
            },
            {
                "species": [
                    {
                        "element": "O",
                        "occu": 1
                    }
                ],
                "abc": [
                    0.2302771,
                    0.04431964,
                    0.13300883
                ],
                "xyz": [
                    0.4692117814109713,
                    -0.821055816031464,
                    1.2761830327789363
                ],
                "label": "O",
                "properties": {}
            },
            {
                "species": [
                    {
                        "element": "O",
                        "occu": 1
                    }
                ],
                "abc": [
                    0.30822817,
                    0.47610712,
                    0.36490639
                ],
                "xyz": [
                    1.3661268442186674,
                    0.7412339805391797,
                    3.5011877602384693
                ],
                "label": "O",
                "properties": {}
            },
            {
                "species": [
                    {
                        "element": "O",
                        "occu": 1
                    }
                ],
                "abc": [
                    0.87706383,
                    0.39989102,
                    0.13505688
                ],
                "xyz": [
                    3.016569937577744,
                    -2.1068555727884037,
                    1.2962074669176418
                ],
                "label": "O",
                "properties": {}
            },
            {
                "species": [
                    {
                        "element": "O",
                        "occu": 1
                    }
                ],
                "abc": [
                    0.39989102,
                    0.87706383,
                    0.63505688
                ],
                "xyz": [
                    2.1534415375777436,
                    2.1068555727884037,
                    6.0931827969176435
                ],
                "label": "O",
                "properties": {}
            },
            {
                "species": [
                    {
                        "element": "O",
                        "occu": 1
                    }
                ],
                "abc": [
                    0.12293617,
                    0.60010898,
                    0.86494312
                ],
                "xyz": [
                    0.34695822242225605,
                    2.1068555727884037,
                    8.298492513082358
                ],
                "label": "O",
                "properties": {}
            },
            {
                "species": [
                    {
                        "element": "O",
                        "occu": 1
                    }
                ],
                "abc": [
                    0.47610712,
                    0.30822817,
                    0.86490639
                ],
                "xyz": [
                    0.5029984442186672,
                    -0.7412339805391797,
                    8.29816309023847
                ],
                "label": "O",
                "properties": {}
            },
            {
                "species": [
                    {
                        "element": "O",
                        "occu": 1
                    }
                ],
                "abc": [
                    0.52389288,
                    0.69177183,
                    0.13509361
                ],
                "xyz": [
                    2.860529715781333,
                    0.7412339805391799,
                    1.2965368897615313
                ],
                "label": "O",
                "properties": {}
            },
            {
                "species": [
                    {
                        "element": "O",
                        "occu": 1
                    }
                ],
                "abc": [
                    0.69177183,
                    0.52389288,
                    0.63509361
                ],
                "xyz": [
                    1.9974013157813328,
                    -0.7412339805391799,
                    6.093512219761531
                ],
                "label": "O",
                "properties": {}
            },
            {
                "species": [
                    {
                        "element": "O",
                        "occu": 1
                    }
                ],
                "abc": [
                    0.95568036,
                    0.7697229,
                    0.36699117
                ],
                "xyz": [
                    3.7574447785890293,
                    -0.8210558160314645,
                    3.521541617221064
                ],
                "label": "O",
                "properties": {}
            }
        ]
    },
    "spacegroup": {
        "source": "spglib",
        "symbol": "C2/c",
        "number": 15,
        "point_group": "2/m",
        "crystal_system": "monoclinic",
        "hall": "-C 2yc"
    },
    "dielectric": {
        "epsilon_ionic": [
            [
                19.2835481,
                1e-08,
                -0.48462916
            ],
            [
                1e-08,
                20.01648328,
                0.0
            ],
            [
                -0.48462916,
                0.0,
                9.29086937
            ]
        ],
        "epsilon_ionic_avg": 16.19696691666667,
        "epsilon_ionic_eig": [
            9.267420644555255,
            19.30699682544476,
            20.01648328
        ],
        "epsilon_electronic": [
            [
                5.11824004,
                0.0,
                0.00393583
            ],
            [
                0.0,
                5.15609064,
                0.0
            ],
            [
                0.0039385,
                0.0,
                3.69553984
            ]
        ],
        "epsilon_electronic_avg": 4.656623506666667,
        "epsilon_electronic_eig": [
            5.118250935582738,
            3.695528944417261,
            5.15609064
        ]
    },
    "phonon": {
        "lowest_freq": -0.10001716008997805,
        "frequency": [
            -0.10001716008997805,
            -0.04485970307467368,
            -0.03127067030918206,
            2.7710107571029927,
            2.818859584670469,
            5.102687620784469,
            5.121609817405182,
            5.3759409902102675,
            5.598671441427763,
            5.712294380347668,
            6.5119401908932115,
            6.941749550599706,
            7.110973309303108,
            8.08551498820637,
            8.091369513762052,
            8.340226956379261,
            8.57854165065774,
            8.596513533453672,
            8.703935059856892,
            8.83579931589217,
            9.024720605180699,
            9.164781421459745,
            9.177274890770109,
            9.348640755806217,
            9.437618931890924,
            9.683778558262933,
            9.747199526845863,
            9.867266530896176,
            9.959474700847908,
            10.13366472615535,
            10.136257137897708,
            10.575361759962425,
            10.758200148499407,
            11.129346409141734,
            11.203451033043907,
            11.302559680623611,
            11.647817559945942,
            11.726268781750175,
            11.800711087338943,
            11.924446236712496,
            11.959716586292446,
            11.997151258040025,
            12.023209994526551,
            12.706667361917917,
            12.730648129598647,
            12.918071802906763,
            13.092069422237893,
            13.663211791914406,
            13.76861029942586,
            13.863527153932035,
            13.897699315136366,
            14.199106991716945,
            14.210165284090106,
            14.23765992656652,
            14.334323058872139,
            14.427835851465364,
            14.51615101557541,
            15.354415825489703,
            15.428802384002195,
            15.619490951151326,
            15.627691334515392,
            15.665026284852928,
            17.39572040271513,
            17.47043524879266,
            17.487111135454317,
            17.488132822201052,
            18.80412030043913,
            19.3452776258934,
            19.37680367447989,
            19.385929950703094,
            20.070659866822737,
            22.09691298474024
        ]
    },
    "born_effective_charge": {
        "avg_abs_trace": 2.3499330555555553,
        "tensors": [
            [
                [
                    0.97623,
                    0.10328,
                    -0.0065
                ],
                [
                    0.10057,
                    1.09314,
                    -0.01398
                ],
                [
                    0.01058,
                    0.01752,
                    1.59189
                ]
            ],
            [
                [
                    0.97623,
                    -0.10328,
                    -0.0065
                ],
                [
                    -0.10057,
                    1.09314,
                    0.01398
                ],
                [
                    0.01057,
                    -0.01753,
                    1.59189
                ]
            ],
            [
                [
                    0.97623,
                    0.10328,
                    -0.0065
                ],
                [
                    0.10059,
                    1.09313,
                    -0.01398
                ],
                [
                    0.01057,
                    0.01753,
                    1.59189
                ]
            ],
            [
                [
                    0.97623,
                    -0.10328,
                    -0.0065
                ],
                [
                    -0.10059,
                    1.09313,
                    0.01398
                ],
                [
                    0.01058,
                    -0.01752,
                    1.59189
                ]
            ],
            [
                [
                    1.14713,
                    0.21138,
                    0.02291
                ],
                [
                    0.20654,
                    0.90665,
                    -0.03671
                ],
                [
                    -0.01563,
                    0.02857,
                    1.58932
                ]
            ],
            [
                [
                    1.14713,
                    -0.21138,
                    0.02291
                ],
                [
                    -0.20654,
                    0.90665,
                    0.03671
                ],
                [
                    -0.01563,
                    -0.02857,
                    1.58932
                ]
            ],
            [
                [
                    1.21523,
                    0.0,
                    0.0081
                ],
                [
                    -0.0,
                    1.20542,
                    0.0
                ],
                [
                    -0.00346,
                    -0.0,
                    0.47078
                ]
            ],
            [
                [
                    1.21523,
                    -0.0,
                    0.0081
                ],
                [
                    -0.0,
                    1.20541,
                    0.0
                ],
                [
                    -0.00346,
                    0.0,
                    0.47078
                ]
            ],
            [
                [
                    5.68442,
                    3e-05,
                    -0.09093
                ],
                [
                    -0.0,
                    5.80292,
                    0.0
                ],
                [
                    0.01214,
                    9e-05,
                    2.73575
                ]
            ],
            [
                [
                    5.73679,
                    5e-05,
                    0.09621
                ],
                [
                    -0.0,
                    5.74686,
                    0.0
                ],
                [
                    0.00629,
                    0.00014,
                    2.73448
                ]
            ],
            [
                [
                    5.73679,
                    -5e-05,
                    0.09621
                ],
                [
                    -0.0,
                    5.74729,
                    0.0
                ],
                [
                    0.00629,
                    -0.00014,
                    2.73448
                ]
            ],
            [
                [
                    5.68442,
                    -3e-05,
                    -0.09093
                ],
                [
                    -0.0,
                    5.80356,
                    0.0
                ],
                [
                    0.01214,
                    -9e-05,
                    2.73575
                ]
            ],
            [
                [
                    -3.04392,
                    -0.74183,
                    -0.21725
                ],
                [
                    -0.75176,
                    -2.19584,
                    0.35898
                ],
                [
                    -0.1922,
                    0.31456,
                    -1.81008
                ]
            ],
            [
                [
                    -3.10012,
                    -0.77328,
                    -0.20406
                ],
                [
                    -0.83246,
                    -2.19271,
                    0.35364
                ],
                [
                    -0.18981,
                    0.31846,
                    -1.77465
                ]
            ],
            [
                [
                    -3.04396,
                    0.74186,
                    -0.2171
                ],
                [
                    0.75176,
                    -2.19584,
                    -0.35898
                ],
                [
                    -0.19218,
                    -0.3145,
                    -1.81001
                ]
            ],
            [
                [
                    -3.04396,
                    -0.74186,
                    -0.2171
                ],
                [
                    -0.75176,
                    -2.19599,
                    0.35915
                ],
                [
                    -0.19218,
                    0.3145,
                    -1.81001
                ]
            ],
            [
                [
                    -1.72396,
                    -0.02596,
                    0.40964
                ],
                [
                    0.02299,
                    -3.53576,
                    0.00804
                ],
                [
                    0.37163,
                    0.0043,
                    -1.77226
                ]
            ],
            [
                [
                    -3.10013,
                    0.77325,
                    -0.20411
                ],
                [
                    0.83246,
                    -2.19271,
                    -0.35364
                ],
                [
                    -0.18982,
                    -0.31841,
                    -1.77472
                ]
            ],
            [
                [
                    -3.10013,
                    -0.77325,
                    -0.20411
                ],
                [
                    -0.8326,
                    -2.19266,
                    0.35344
                ],
                [
                    -0.18982,
                    0.31841,
                    -1.77472
                ]
            ],
            [
                [
                    -3.10012,
                    0.77328,
                    -0.20406
                ],
                [
                    0.8326,
                    -2.19266,
                    -0.35344
                ],
                [
                    -0.18981,
                    -0.31846,
                    -1.77465
                ]
            ],
            [
                [
                    -1.72396,
                    0.02596,
                    0.40964
                ],
                [
                    -0.02277,
                    -3.5357,
                    -0.00849
                ],
                [
                    0.37163,
                    -0.0043,
                    -1.77226
                ]
            ],
            [
                [
                    -1.72394,
                    0.02599,
                    0.4096
                ],
                [
                    -0.02299,
                    -3.53576,
                    -0.00804
                ],
                [
                    0.3719,
                    -0.00436,
                    -1.77239
                ]
            ],
            [
                [
                    -1.72394,
                    -0.02599,
                    0.4096
                ],
                [
                    0.02277,
                    -3.5357,
                    0.00849
                ],
                [
                    0.3719,
                    0.00436,
                    -1.77239
                ]
            ],
            [
                [
                    -3.04392,
                    0.74183,
                    -0.21725
                ],
                [
                    0.75176,
                    -2.19599,
                    -0.35915
                ],
                [
                    -0.1922,
                    -0.31456,
                    -1.81008
                ]
            ]
        ]
    },
    "band_gap": 3.2325,
    "is_direct": false,
    "formula": "Li2TiO3"
}