{
    "mp_id": "mp-2472",
    "nelements": 2,
    "nsites": 2,
    "elements": [
        "O",
        "Sr"
    ],
    "structure": {
        "@module": "pymatgen.core.structure",
        "@class": "Structure",
        "charge": null,
        "lattice": {
            "matrix": [
                [
                    0.0,
                    2.567018,
                    2.567018
                ],
                [
                    2.567018,
                    0.0,
                    2.567018
                ],
                [
                    2.567018,
                    2.567018,
                    0.0
                ]
            ],
            "a": 3.630311670455858,
            "b": 3.630311670455858,
            "c": 3.630311670455858,
            "alpha": 60.00000000000001,
            "beta": 60.00000000000001,
            "gamma": 60.00000000000001,
            "volume": 33.83114819580226
        },
        "sites": [
            {
                "species": [
                    {
                        "element": "Sr",
                        "occu": 1
                    }
                ],
                "abc": [
                    0.5,
                    0.5,
                    0.5
                ],
                "xyz": [
                    2.567018,
                    2.567018,
                    2.567018
                ],
                "label": "Sr",
                "properties": {}
            },
            {
                "species": [
                    {
                        "element": "O",
                        "occu": 1
                    }
                ],
                "abc": [
                    0.0,
                    0.0,
                    0.0
                ],
                "xyz": [
                    0.0,
                    0.0,
                    0.0
                ],
                "label": "O",
                "properties": {}
            }
        ]
    },
    "spacegroup": {
        "source": "spglib",
        "symbol": "Fm-3m",
        "number": 225,
        "point_group": "m-3m",
        "crystal_system": "cubic",
        "hall": "-F 4 2 3"
    },
    "dielectric": {
        "epsilon_ionic": [
            [
                15.5986871,
                -0.0,
                -0.0
            ],
            [
                -0.0,
                15.59886118,
                -0.0
            ],
            [
                -0.0,
                -0.0,
                15.59646186
            ]
        ],
        "epsilon_ionic_avg": 15.59800338,
        "epsilon_ionic_eig": [
            15.5986871,
            15.59886118,
            15.59646186
        ],
        "epsilon_electronic": [
            [
                3.8777068,
                -0.0,
                -0.0
            ],
            [
                0.0,
                3.8777068,
                0.0
            ],
            [
                -0.0,
                0.0,
                3.8777068
            ]
        ],
        "epsilon_electronic_avg": 3.8777068,
        "epsilon_electronic_eig": [
            3.8777068,
            3.8777068,
            3.8777068
        ]
    },
    "phonon": {
        "lowest_freq": -0.0347905093150834,
        "frequency": [
            -0.0347905093150834,
            -0.0347905093150834,
            -0.0347905093150834,
            6.077461021712459,
            6.077461021712459,
            6.077461021712459
        ]
    },
    "born_effective_charge": {
        "avg_abs_trace": 2.455303333333333,
        "tensors": [
            [
                [
                    2.45536,
                    -0.0,
                    0.0
                ],
                [
                    0.0,
                    2.45537,
                    0.0
                ],
                [
                    0.0,
                    0.0,
                    2.45518
                ]
            ],
            [
                [
                    -2.45536,
                    0.0,
                    0.0
                ],
                [
                    0.0,
                    -2.45537,
                    0.0
                ],
                [
                    0.0,
                    0.0,
                    -2.45518
                ]
            ]
        ]
    },
    "band_gap": 3.1611,
    "is_direct": false,
    "formula": "SrO"
}