{
    "mp_id": "mp-27742",
    "nelements": 3,
    "nsites": 20,
    "elements": [
        "Cd",
        "K",
        "O"
    ],
    "structure": {
        "@module": "pymatgen.core.structure",
        "@class": "Structure",
        "charge": null,
        "lattice": {
            "matrix": [
                [
                    10.03343587,
                    0.0,
                    0.0
                ],
                [
                    0.0,
                    6.20276786,
                    0.0
                ],
                [
                    0.0,
                    0.0,
                    6.22777274
                ]
            ],
            "a": 10.03343587,
            "b": 6.20276786,
            "c": 6.22777274,
            "alpha": 90.0,
            "beta": 90.0,
            "gamma": 90.0,
            "volume": 387.5858944631062
        },
        "sites": [
            {
                "species": [
                    {
                        "element": "K",
                        "occu": 1
                    }
                ],
                "abc": [
                    0.34458997,
                    0.89602937,
                    0.60743822
                ],
                "xyz": [
                    3.457421365440224,
                    5.557862177852049,
                    3.782987187750123
                ],
                "label": "K",
                "properties": {}
            },
            {
                "species": [
                    {
                        "element": "K",
                        "occu": 1
                    }
                ],
                "abc": [
                    0.84458997,
                    0.60397063,
                    0.39256178
                ],
                "xyz": [
                    8.474139300440225,
                    3.7462896121479514,
                    2.4447855522498774
                ],
                "label": "K",
                "properties": {}
            },
            {
                "species": [
                    {
                        "element": "K",
                        "occu": 1
                    }
                ],
                "abc": [
                    0.34458997,
                    0.10397063,
                    0.10743822
                ],
                "xyz": [
                    3.457421365440224,
                    0.6449056821479517,
                    0.6691008177501228
                ],
                "label": "K",
                "properties": {}
            },
            {
                "species": [
                    {
                        "element": "K",
                        "occu": 1
                    }
                ],
                "abc": [
                    0.84458997,
                    0.39602937,
                    0.89256178
                ],
                "xyz": [
                    8.474139300440225,
                    2.456478247852048,
                    5.558671922249877
                ],
                "label": "K",
                "properties": {}
            },
            {
                "species": [
                    {
                        "element": "K",
                        "occu": 1
                    }
                ],
                "abc": [
                    0.65541003,
                    0.10397063,
                    0.39256178
                ],
                "xyz": [
                    6.576014504559776,
                    0.6449056821479517,
                    2.4447855522498774
                ],
                "label": "K",
                "properties": {}
            },
            {
                "species": [
                    {
                        "element": "K",
                        "occu": 1
                    }
                ],
                "abc": [
                    0.15541003,
                    0.39602937,
                    0.60743822
                ],
                "xyz": [
                    1.559296569559776,
                    2.456478247852048,
                    3.782987187750123
                ],
                "label": "K",
                "properties": {}
            },
            {
                "species": [
                    {
                        "element": "K",
                        "occu": 1
                    }
                ],
                "abc": [
                    0.15541003,
                    0.60397063,
                    0.10743822
                ],
                "xyz": [
                    1.559296569559776,
                    3.7462896121479514,
                    0.6691008177501228
                ],
                "label": "K",
                "properties": {}
            },
            {
                "species": [
                    {
                        "element": "K",
                        "occu": 1
                    }
                ],
                "abc": [
                    0.65541003,
                    0.89602937,
                    0.89256178
                ],
                "xyz": [
                    6.576014504559776,
                    5.557862177852049,
                    5.558671922249877
                ],
                "label": "K",
                "properties": {}
            },
            {
                "species": [
                    {
                        "element": "Cd",
                        "occu": 1
                    }
                ],
                "abc": [
                    0.5,
                    0.53845764,
                    0.25
                ],
                "xyz": [
                    5.016717935,
                    3.33992774336345,
                    1.556943185
                ],
                "label": "Cd",
                "properties": {}
            },
            {
                "species": [
                    {
                        "element": "Cd",
                        "occu": 1
                    }
                ],
                "abc": [
                    0.5,
                    0.46154236,
                    0.75
                ],
                "xyz": [
                    5.016717935,
                    2.8628401166365496,
                    4.670829555
                ],
                "label": "Cd",
                "properties": {}
            },
            {
                "species": [
                    {
                        "element": "Cd",
                        "occu": 1
                    }
                ],
                "abc": [
                    0.0,
                    0.03845764,
                    0.25
                ],
                "xyz": [
                    0.0,
                    0.2385438133634504,
                    1.556943185
                ],
                "label": "Cd",
                "properties": {}
            },
            {
                "species": [
                    {
                        "element": "Cd",
                        "occu": 1
                    }
                ],
                "abc": [
                    0.0,
                    0.96154236,
                    0.75
                ],
                "xyz": [
                    0.0,
                    5.9642240466365495,
                    4.670829555
                ],
                "label": "Cd",
                "properties": {}
            },
            {
                "species": [
                    {
                        "element": "O",
                        "occu": 1
                    }
                ],
                "abc": [
                    0.09804208,
                    0.80044763,
                    0.47977036
                ],
                "xyz": [
                    0.9836989222414096,
                    4.964990832977171,
                    2.9879007694679864
                ],
                "label": "O",
                "properties": {}
            },
            {
                "species": [
                    {
                        "element": "O",
                        "occu": 1
                    }
                ],
                "abc": [
                    0.09804208,
                    0.19955237,
                    0.97977036
                ],
                "xyz": [
                    0.9836989222414096,
                    1.237777027022828,
                    6.101787139467986
                ],
                "label": "O",
                "properties": {}
            },
            {
                "species": [
                    {
                        "element": "O",
                        "occu": 1
                    }
                ],
                "abc": [
                    0.40195792,
                    0.30044763,
                    0.47977036
                ],
                "xyz": [
                    4.033019012758591,
                    1.8636069029771718,
                    2.9879007694679864
                ],
                "label": "O",
                "properties": {}
            },
            {
                "species": [
                    {
                        "element": "O",
                        "occu": 1
                    }
                ],
                "abc": [
                    0.59804208,
                    0.69955237,
                    0.52022964
                ],
                "xyz": [
                    6.00041685724141,
                    4.339160957022829,
                    3.239871970532014
                ],
                "label": "O",
                "properties": {}
            },
            {
                "species": [
                    {
                        "element": "O",
                        "occu": 1
                    }
                ],
                "abc": [
                    0.90195792,
                    0.19955237,
                    0.52022964
                ],
                "xyz": [
                    9.04973694775859,
                    1.237777027022828,
                    3.239871970532014
                ],
                "label": "O",
                "properties": {}
            },
            {
                "species": [
                    {
                        "element": "O",
                        "occu": 1
                    }
                ],
                "abc": [
                    0.90195792,
                    0.80044763,
                    0.02022964
                ],
                "xyz": [
                    9.04973694775859,
                    4.964990832977171,
                    0.1259856005320136
                ],
                "label": "O",
                "properties": {}
            },
            {
                "species": [
                    {
                        "element": "O",
                        "occu": 1
                    }
                ],
                "abc": [
                    0.40195792,
                    0.69955237,
                    0.97977036
                ],
                "xyz": [
                    4.033019012758591,
                    4.339160957022829,
                    6.101787139467986
                ],
                "label": "O",
                "properties": {}
            },
            {
                "species": [
                    {
                        "element": "O",
                        "occu": 1
                    }
                ],
                "abc": [
                    0.59804208,
                    0.30044763,
                    0.02022964
                ],
                "xyz": [
                    6.00041685724141,
                    1.8636069029771718,
                    0.1259856005320136
                ],
                "label": "O",
                "properties": {}
            }
        ]
    },
    "spacegroup": {
        "source": "spglib",
        "symbol": "Pbcn",
        "number": 60,
        "point_group": "mmm",
        "crystal_system": "orthorhombic",
        "hall": "-P 2n 2ab"
    },
    "dielectric": {
        "epsilon_ionic": [
            [
                6.05276665,
                -1e-08,
                1e-08
            ],
            [
                -1e-08,
                5.36853725,
                7e-08
            ],
            [
                1e-08,
                7e-08,
                7.3545657
            ]
        ],
        "epsilon_ionic_avg": 6.2586232,
        "epsilon_ionic_eig": [
            6.052766649999999,
            5.36853725,
            7.354565700000003
        ],
        "epsilon_electronic": [
            [
                3.39609977,
                0.0,
                0.0
            ],
            [
                0.0,
                3.53374526,
                -0.0
            ],
            [
                0.0,
                0.0,
                4.16133725
            ]
        ],
        "epsilon_electronic_avg": 3.69706076,
        "epsilon_electronic_eig": [
            3.39609977,
            3.53374526,
            4.16133725
        ]
    },
    "phonon": {
        "lowest_freq": -0.063472212842757,
        "frequency": [
            -0.063472212842757,
            -0.03737383761218875,
            -0.037171764284170655,
            1.1959963349944374,
            1.4796397993200063,
            1.8808887703684452,
            1.9897571667557892,
            2.0127309389737693,
            2.2344140952548304,
            2.5074769276535394,
            2.520760958003193,
            2.6450774223768505,
            2.732918209313827,
            2.7616106429716374,
            2.887158831310468,
            3.1313524393970207,
            3.2777600096986976,
            3.2925128657095772,
            3.3357859038704247,
            3.6863119262568746,
            3.698047714422398,
            3.9431699316749023,
            4.12764092707997,
            4.142586957466771,
            4.199816105281902,
            4.232107348406826,
            4.375880133995946,
            4.649441913774825,
            4.877054368149853,
            4.937924314016385,
            5.003213960599204,
            5.107725626241915,
            5.508684644484703,
            5.571766470433494,
            5.591358305658248,
            5.708213443441787,
            5.864327605053026,
            6.08520204718488,
            6.227023758556664,
            6.241882473137161,
            6.406984716810644,
            6.616888602862549,
            6.8256391197350235,
            8.131673974787956,
            8.617686893874026,
            8.95581368232529,
            9.377283963384482,
            9.384313321008936,
            9.86533489730822,
            9.873075638088077,
            10.143158844464846,
            10.314399608500315,
            11.010582188727861,
            12.076998185772668,
            12.32646989985742,
            12.384534577595431,
            12.47526259440313,
            12.737664212050055,
            12.739869417303796,
            13.0128658888374
        ]
    },
    "born_effective_charge": {
        "avg_abs_trace": 1.599465,
        "tensors": [
            [
                [
                    1.19839,
                    -0.06495,
                    0.0372
                ],
                [
                    -0.13828,
                    1.18772,
                    -0.09181
                ],
                [
                    -0.0254,
                    -0.04854,
                    1.02976
                ]
            ],
            [
                [
                    1.19839,
                    0.06495,
                    -0.0372
                ],
                [
                    0.13837,
                    1.18791,
                    -0.09149
                ],
                [
                    0.02547,
                    -0.04853,
                    1.02999
                ]
            ],
            [
                [
                    1.19839,
                    0.06495,
                    0.0372
                ],
                [
                    0.13837,
                    1.18791,
                    0.09149
                ],
                [
                    -0.0254,
                    0.04854,
                    1.02976
                ]
            ],
            [
                [
                    1.19839,
                    -0.06495,
                    -0.0372
                ],
                [
                    -0.13828,
                    1.18772,
                    0.09181
                ],
                [
                    0.02547,
                    0.04853,
                    1.02999
                ]
            ],
            [
                [
                    1.19847,
                    -0.06494,
                    0.03722
                ],
                [
                    -0.13837,
                    1.18791,
                    -0.09149
                ],
                [
                    -0.02547,
                    -0.04853,
                    1.02999
                ]
            ],
            [
                [
                    1.19847,
                    0.06494,
                    -0.03722
                ],
                [
                    0.13828,
                    1.18772,
                    -0.09181
                ],
                [
                    0.0254,
                    -0.04854,
                    1.02976
                ]
            ],
            [
                [
                    1.19847,
                    -0.06494,
                    -0.03722
                ],
                [
                    -0.13837,
                    1.18791,
                    0.09149
                ],
                [
                    0.0254,
                    0.04854,
                    1.02976
                ]
            ],
            [
                [
                    1.19847,
                    0.06494,
                    0.03722
                ],
                [
                    0.13828,
                    1.18772,
                    0.09181
                ],
                [
                    -0.02547,
                    0.04853,
                    1.02999
                ]
            ],
            [
                [
                    1.18013,
                    -8e-05,
                    0.14805
                ],
                [
                    0.0,
                    1.46471,
                    0.0
                ],
                [
                    0.02573,
                    -1e-05,
                    2.51892
                ]
            ],
            [
                [
                    1.18013,
                    8e-05,
                    0.14805
                ],
                [
                    0.0,
                    1.46468,
                    0.0
                ],
                [
                    0.02573,
                    1e-05,
                    2.51892
                ]
            ],
            [
                [
                    1.18013,
                    -8e-05,
                    -0.14805
                ],
                [
                    0.0,
                    1.46471,
                    0.0
                ],
                [
                    -0.02573,
                    -1e-05,
                    2.51892
                ]
            ],
            [
                [
                    1.18013,
                    8e-05,
                    -0.14805
                ],
                [
                    0.0,
                    1.46468,
                    0.0
                ],
                [
                    -0.02573,
                    1e-05,
                    2.51892
                ]
            ],
            [
                [
                    -1.78855,
                    0.36207,
                    0.05325
                ],
                [
                    0.35649,
                    -1.92005,
                    -0.15401
                ],
                [
                    -0.02703,
                    0.09544,
                    -2.28935
                ]
            ],
            [
                [
                    -1.78855,
                    -0.36207,
                    0.05325
                ],
                [
                    -0.35626,
                    -1.92028,
                    0.15425
                ],
                [
                    -0.02703,
                    -0.09544,
                    -2.28935
                ]
            ],
            [
                [
                    -1.78843,
                    -0.36206,
                    -0.05328
                ],
                [
                    -0.35649,
                    -1.92005,
                    -0.15401
                ],
                [
                    0.02703,
                    0.09544,
                    -2.28935
                ]
            ],
            [
                [
                    -1.78855,
                    -0.36207,
                    -0.05325
                ],
                [
                    -0.35626,
                    -1.92028,
                    -0.15425
                ],
                [
                    0.02731,
                    0.09603,
                    -2.28933
                ]
            ],
            [
                [
                    -1.78843,
                    0.36206,
                    0.05328
                ],
                [
                    0.35626,
                    -1.92028,
                    -0.15425
                ],
                [
                    -0.02731,
                    0.09603,
                    -2.28933
                ]
            ],
            [
                [
                    -1.78843,
                    -0.36206,
                    0.05328
                ],
                [
                    -0.35649,
                    -1.92005,
                    0.15401
                ],
                [
                    -0.02731,
                    -0.09603,
                    -2.28933
                ]
            ],
            [
                [
                    -1.78843,
                    0.36206,
                    -0.05328
                ],
                [
                    0.35626,
                    -1.92028,
                    0.15425
                ],
                [
                    0.02703,
                    -0.09544,
                    -2.28935
                ]
            ],
            [
                [
                    -1.78855,
                    0.36207,
                    -0.05325
                ],
                [
                    0.35649,
                    -1.92005,
                    0.15401
                ],
                [
                    0.02731,
                    -0.09603,
                    -2.28933
                ]
            ]
        ]
    },
    "band_gap": 1.3417000000000001,
    "is_direct": false,
    "formula": "K2CdO2"
}