{
    "mp_id": "mp-29892",
    "nelements": 3,
    "nsites": 24,
    "elements": [
        "Li",
        "O",
        "Sb"
    ],
    "structure": {
        "@module": "pymatgen.core.structure",
        "@class": "Structure",
        "charge": null,
        "lattice": {
            "matrix": [
                [
                    5.64469265,
                    0.0,
                    -0.00149083
                ],
                [
                    0.0,
                    4.73236146,
                    0.0
                ],
                [
                    -1.17941267,
                    0.0,
                    10.28677455
                ]
            ],
            "a": 5.644692846872902,
            "b": 4.73236146,
            "c": 10.354165581478995,
            "alpha": 90.0,
            "beta": 96.55572307131457,
            "gamma": 90.0,
            "volume": 274.7794685386589
        },
        "sites": [
            {
                "species": [
                    {
                        "element": "Li",
                        "occu": 1
                    }
                ],
                "abc": [
                    0.0,
                    0.5,
                    0.5
                ],
                "xyz": [
                    -0.589706335,
                    2.36618073,
                    5.143387275
                ],
                "label": "Li",
                "properties": {}
            },
            {
                "species": [
                    {
                        "element": "Li",
                        "occu": 1
                    }
                ],
                "abc": [
                    0.0,
                    0.0,
                    0.0
                ],
                "xyz": [
                    0.0,
                    0.0,
                    0.0
                ],
                "label": "Li",
                "properties": {}
            },
            {
                "species": [
                    {
                        "element": "Sb",
                        "occu": 1
                    }
                ],
                "abc": [
                    0.5,
                    0.5,
                    0.0
                ],
                "xyz": [
                    2.822346325,
                    2.36618073,
                    -0.000745415
                ],
                "label": "Sb",
                "properties": {}
            },
            {
                "species": [
                    {
                        "element": "Sb",
                        "occu": 1
                    }
                ],
                "abc": [
                    0.5,
                    0.0,
                    0.5
                ],
                "xyz": [
                    2.23263999,
                    0.0,
                    5.14264186
                ],
                "label": "Sb",
                "properties": {}
            },
            {
                "species": [
                    {
                        "element": "Sb",
                        "occu": 1
                    }
                ],
                "abc": [
                    0.23677123,
                    0.02180775,
                    0.7510155
                ],
                "xyz": [
                    0.4507436256460745,
                    0.103202155629315,
                    7.725174146402704
                ],
                "label": "Sb",
                "properties": {}
            },
            {
                "species": [
                    {
                        "element": "Sb",
                        "occu": 1
                    }
                ],
                "abc": [
                    0.76322877,
                    0.52180775,
                    0.7489845
                ],
                "xyz": [
                    3.4248300193539256,
                    2.469382885629315,
                    7.703496848597297
                ],
                "label": "Sb",
                "properties": {}
            },
            {
                "species": [
                    {
                        "element": "Sb",
                        "occu": 1
                    }
                ],
                "abc": [
                    0.76322877,
                    0.97819225,
                    0.2489845
                ],
                "xyz": [
                    4.014536354353925,
                    4.629159304370685,
                    2.560109573597296
                ],
                "label": "Sb",
                "properties": {}
            },
            {
                "species": [
                    {
                        "element": "Sb",
                        "occu": 1
                    }
                ],
                "abc": [
                    0.23677123,
                    0.47819225,
                    0.2510155
                ],
                "xyz": [
                    1.0404499606460744,
                    2.2629785743706847,
                    2.581786871402704
                ],
                "label": "Sb",
                "properties": {}
            },
            {
                "species": [
                    {
                        "element": "O",
                        "occu": 1
                    }
                ],
                "abc": [
                    0.23497162,
                    0.67150809,
                    0.08145422
                ],
                "xyz": [
                    1.2302744372796255,
                    3.1778190051942112,
                    0.8375508945458564
                ],
                "label": "O",
                "properties": {}
            },
            {
                "species": [
                    {
                        "element": "O",
                        "occu": 1
                    }
                ],
                "abc": [
                    0.76502838,
                    0.17150809,
                    0.41854578
                ],
                "xyz": [
                    3.8247118777203735,
                    0.8116382751942114,
                    4.304345550454143
                ],
                "label": "O",
                "properties": {}
            },
            {
                "species": [
                    {
                        "element": "O",
                        "occu": 1
                    }
                ],
                "abc": [
                    0.76502838,
                    0.32849191,
                    0.91854578
                ],
                "xyz": [
                    3.2350055427203737,
                    1.5545424548057885,
                    9.447732825454144
                ],
                "label": "O",
                "properties": {}
            },
            {
                "species": [
                    {
                        "element": "O",
                        "occu": 1
                    }
                ],
                "abc": [
                    0.23497162,
                    0.82849191,
                    0.58145422
                ],
                "xyz": [
                    0.6405681022796255,
                    3.9207231848057886,
                    5.980938169545857
                ],
                "label": "O",
                "properties": {}
            },
            {
                "species": [
                    {
                        "element": "O",
                        "occu": 1
                    }
                ],
                "abc": [
                    0.47902989,
                    0.78226286,
                    0.32602738
                ],
                "xyz": [
                    2.3194556764744036,
                    3.7019506102533755,
                    3.3530560030562704
                ],
                "label": "O",
                "properties": {}
            },
            {
                "species": [
                    {
                        "element": "O",
                        "occu": 1
                    }
                ],
                "abc": [
                    0.52097011,
                    0.28226286,
                    0.17397262
                ],
                "xyz": [
                    2.735530638525596,
                    1.3357698802533755,
                    1.7888404419437298
                ],
                "label": "O",
                "properties": {}
            },
            {
                "species": [
                    {
                        "element": "O",
                        "occu": 1
                    }
                ],
                "abc": [
                    0.52097011,
                    0.21773714,
                    0.67397262
                ],
                "xyz": [
                    2.1458243035255964,
                    1.0304108497466244,
                    6.93222771694373
                ],
                "label": "O",
                "properties": {}
            },
            {
                "species": [
                    {
                        "element": "O",
                        "occu": 1
                    }
                ],
                "abc": [
                    0.47902989,
                    0.71773714,
                    0.82602738
                ],
                "xyz": [
                    1.7297493414744038,
                    3.3965915797466244,
                    8.49644327805627
                ],
                "label": "O",
                "properties": {}
            },
            {
                "species": [
                    {
                        "element": "O",
                        "occu": 1
                    }
                ],
                "abc": [
                    0.27948602,
                    0.29405046,
                    0.42131564
                ],
                "xyz": [
                    1.0807076789865941,
                    1.3915530641992717,
                    4.333562336925765
                ],
                "label": "O",
                "properties": {}
            },
            {
                "species": [
                    {
                        "element": "O",
                        "occu": 1
                    }
                ],
                "abc": [
                    0.72051398,
                    0.79405046,
                    0.07868436
                ],
                "xyz": [
                    3.9742786360134055,
                    3.7577337941992717,
                    0.8083341080742347
                ],
                "label": "O",
                "properties": {}
            },
            {
                "species": [
                    {
                        "element": "O",
                        "occu": 1
                    }
                ],
                "abc": [
                    0.72051398,
                    0.70594954,
                    0.57868436
                ],
                "xyz": [
                    3.3845723010134052,
                    3.340808395800728,
                    5.951721383074235
                ],
                "label": "O",
                "properties": {}
            },
            {
                "species": [
                    {
                        "element": "O",
                        "occu": 1
                    }
                ],
                "abc": [
                    0.27948602,
                    0.20594954,
                    0.92131564
                ],
                "xyz": [
                    0.4910013439865941,
                    0.9746276658007283,
                    9.476949611925765
                ],
                "label": "O",
                "properties": {}
            },
            {
                "species": [
                    {
                        "element": "O",
                        "occu": 1
                    }
                ],
                "abc": [
                    0.98714325,
                    0.80999082,
                    0.82544413
                ],
                "xyz": [
                    4.598580982472985,
                    3.833169339521797,
                    8.489686006159495
                ],
                "label": "O",
                "properties": {}
            },
            {
                "species": [
                    {
                        "element": "O",
                        "occu": 1
                    }
                ],
                "abc": [
                    0.01285675,
                    0.30999082,
                    0.67455587
                ],
                "xyz": [
                    -0.7230073374729854,
                    1.4669886095217972,
                    6.938984988840506
                ],
                "label": "O",
                "properties": {}
            },
            {
                "species": [
                    {
                        "element": "O",
                        "occu": 1
                    }
                ],
                "abc": [
                    0.01285675,
                    0.19000918,
                    0.17455587
                ],
                "xyz": [
                    -0.13330100247298543,
                    0.8991921204782027,
                    1.7955977138405061
                ],
                "label": "O",
                "properties": {}
            },
            {
                "species": [
                    {
                        "element": "O",
                        "occu": 1
                    }
                ],
                "abc": [
                    0.98714325,
                    0.69000918,
                    0.32544413
                ],
                "xyz": [
                    5.188287317472985,
                    3.2653728504782027,
                    3.3462987311594943
                ],
                "label": "O",
                "properties": {}
            }
        ]
    },
    "spacegroup": {
        "source": "spglib",
        "symbol": "P2_1/c",
        "number": 14,
        "point_group": "2/m",
        "crystal_system": "monoclinic",
        "hall": "-P 2ybc"
    },
    "dielectric": {
        "epsilon_ionic": [
            [
                7.88788097,
                -2e-08,
                1.05307023
            ],
            [
                -2e-08,
                8.61719222,
                -5e-08
            ],
            [
                1.05307023,
                -5e-08,
                5.96392588
            ]
        ],
        "epsilon_ionic_avg": 7.489666356666665,
        "epsilon_ionic_eig": [
            5.4995943047892055,
            8.352212545210785,
            8.617192220000005
        ],
        "epsilon_electronic": [
            [
                4.3868781,
                0.0,
                -0.11351533
            ],
            [
                0.0,
                4.31987567,
                0.0
            ],
            [
                -0.11351567,
                0.0,
                4.50789284
            ]
        ],
        "epsilon_electronic_avg": 4.404882203333334,
        "epsilon_electronic_eig": [
            4.318750674689641,
            4.576020265310359,
            4.31987567
        ]
    },
    "phonon": {
        "lowest_freq": -0.06831097130866999,
        "frequency": [
            -0.06831097130866999,
            -0.05656635815772718,
            -0.05081425261013512,
            2.939759867341504,
            3.0163697261179006,
            3.138067593592672,
            3.194135852588709,
            3.6835343885154868,
            4.284419333054374,
            4.751955848084452,
            4.998945749793453,
            5.25186472266093,
            5.449297546367034,
            5.450843592610579,
            5.460766498443904,
            5.873574036185262,
            5.909436792739406,
            6.482043758358413,
            6.5482761247947225,
            6.964836674258699,
            7.2548023279413645,
            7.32312409412027,
            7.325208555659288,
            7.691774882145255,
            7.704161143703202,
            7.88605330622548,
            8.003326801315328,
            8.089796327704997,
            8.091399809359416,
            8.309029905507026,
            8.597010222178657,
            8.969257040876087,
            9.081236117678184,
            9.762988850520921,
            9.882115670778276,
            10.041152751934645,
            10.388241225129507,
            10.993371680657862,
            12.587192195775538,
            12.738258982227071,
            13.0492341430198,
            13.19180084527824,
            13.783674131705242,
            14.068390793508435,
            14.599993141659173,
            14.616792547122978,
            14.647337608845511,
            14.663790916090976,
            14.909223412338743,
            15.116669366512733,
            15.211376353775387,
            15.864500326551095,
            16.417309024911162,
            16.713913089629894,
            16.834276342126216,
            17.31291486122267,
            17.654785336341284,
            18.012994218583074,
            18.792057732816794,
            18.86325258218003,
            18.99920993597429,
            19.907687943458914,
            19.91234240600046,
            20.095682099350178,
            21.0684769534836,
            21.14224377131839,
            21.33627157808725,
            22.38501948586553,
            22.841465476526306,
            23.280362419700964,
            24.021551065855874,
            24.105065359273144
        ]
    },
    "born_effective_charge": {
        "avg_abs_trace": 2.630376111111111,
        "tensors": [
            [
                [
                    1.22506,
                    0.10847,
                    -0.04871
                ],
                [
                    0.14487,
                    1.20994,
                    0.17666
                ],
                [
                    -0.06399,
                    0.09652,
                    1.28733
                ]
            ],
            [
                [
                    1.22506,
                    -0.10847,
                    -0.04871
                ],
                [
                    -0.14487,
                    1.20994,
                    -0.17666
                ],
                [
                    -0.06399,
                    -0.09652,
                    1.28733
                ]
            ],
            [
                [
                    4.01953,
                    0.34915,
                    -0.20701
                ],
                [
                    1.29854,
                    4.42579,
                    -0.67243
                ],
                [
                    -0.225,
                    0.82838,
                    5.99198
                ]
            ],
            [
                [
                    4.01953,
                    -0.34915,
                    -0.20701
                ],
                [
                    -1.29854,
                    4.42579,
                    0.67243
                ],
                [
                    -0.225,
                    -0.82838,
                    5.99198
                ]
            ],
            [
                [
                    5.28847,
                    -0.48449,
                    -0.12664
                ],
                [
                    -0.1228,
                    4.86543,
                    -0.62734
                ],
                [
                    -0.12143,
                    0.04396,
                    4.43958
                ]
            ],
            [
                [
                    5.28848,
                    0.48449,
                    -0.12672
                ],
                [
                    0.1228,
                    4.86543,
                    0.62734
                ],
                [
                    -0.12132,
                    -0.0439,
                    4.43962
                ]
            ],
            [
                [
                    5.28848,
                    -0.48449,
                    -0.12672
                ],
                [
                    -0.12258,
                    4.86557,
                    -0.62727
                ],
                [
                    -0.12132,
                    0.0439,
                    4.43962
                ]
            ],
            [
                [
                    5.28847,
                    0.48449,
                    -0.12664
                ],
                [
                    0.12258,
                    4.86557,
                    0.62727
                ],
                [
                    -0.12143,
                    -0.04396,
                    4.43958
                ]
            ],
            [
                [
                    -1.75483,
                    0.13679,
                    0.53197
                ],
                [
                    0.10698,
                    -1.46695,
                    0.11466
                ],
                [
                    0.40387,
                    0.14656,
                    -2.14969
                ]
            ],
            [
                [
                    -1.75487,
                    -0.13679,
                    0.53194
                ],
                [
                    -0.10698,
                    -1.46695,
                    -0.11466
                ],
                [
                    0.40392,
                    -0.14643,
                    -2.1497
                ]
            ],
            [
                [
                    -1.75487,
                    0.13679,
                    0.53194
                ],
                [
                    0.10717,
                    -1.46658,
                    0.11464
                ],
                [
                    0.40392,
                    0.14643,
                    -2.1497
                ]
            ],
            [
                [
                    -1.75483,
                    -0.13679,
                    0.53197
                ],
                [
                    -0.10717,
                    -1.46658,
                    -0.11464
                ],
                [
                    0.40387,
                    -0.14656,
                    -2.14969
                ]
            ],
            [
                [
                    -2.06913,
                    -0.61688,
                    0.14744
                ],
                [
                    -0.6215,
                    -2.11285,
                    -0.64459
                ],
                [
                    0.20383,
                    -0.43366,
                    -2.26264
                ]
            ],
            [
                [
                    -2.06911,
                    0.6169,
                    0.14748
                ],
                [
                    0.6215,
                    -2.11285,
                    0.64459
                ],
                [
                    0.20387,
                    0.43365,
                    -2.26273
                ]
            ],
            [
                [
                    -2.06911,
                    -0.6169,
                    0.14748
                ],
                [
                    -0.62147,
                    -2.11294,
                    -0.6443
                ],
                [
                    0.20387,
                    -0.43365,
                    -2.26273
                ]
            ],
            [
                [
                    -2.06913,
                    0.61688,
                    0.14744
                ],
                [
                    0.62147,
                    -2.11294,
                    0.6443
                ],
                [
                    0.20383,
                    0.43366,
                    -2.26264
                ]
            ],
            [
                [
                    -1.64902,
                    0.52705,
                    -0.40752
                ],
                [
                    0.5552,
                    -1.99694,
                    0.60957
                ],
                [
                    -0.25184,
                    0.71001,
                    -2.18936
                ]
            ],
            [
                [
                    -1.64896,
                    -0.5271,
                    -0.40755
                ],
                [
                    -0.5552,
                    -1.99694,
                    -0.60957
                ],
                [
                    -0.25179,
                    -0.70991,
                    -2.18938
                ]
            ],
            [
                [
                    -1.64896,
                    0.5271,
                    -0.40755
                ],
                [
                    0.55527,
                    -1.99699,
                    0.60939
                ],
                [
                    -0.25179,
                    0.70991,
                    -2.18938
                ]
            ],
            [
                [
                    -1.64902,
                    -0.52705,
                    -0.40752
                ],
                [
                    -0.55527,
                    -1.99699,
                    -0.60939
                ],
                [
                    -0.25184,
                    -0.71001,
                    -2.18936
                ]
            ],
            [
                [
                    -2.43777,
                    -0.88228,
                    -0.01737
                ],
                [
                    -0.84801,
                    -2.1066,
                    -0.08049
                ],
                [
                    -0.09,
                    -0.20135,
                    -1.47753
                ]
            ],
            [
                [
                    -2.43784,
                    0.88227,
                    -0.01731
                ],
                [
                    0.84801,
                    -2.1066,
                    0.08049
                ],
                [
                    -0.09012,
                    0.20123,
                    -1.47748
                ]
            ],
            [
                [
                    -2.43784,
                    -0.88227,
                    -0.01731
                ],
                [
                    -0.84787,
                    -2.10687,
                    -0.08052
                ],
                [
                    -0.09012,
                    -0.20123,
                    -1.47748
                ]
            ],
            [
                [
                    -2.43777,
                    0.88228,
                    -0.01737
                ],
                [
                    0.84787,
                    -2.10687,
                    0.08052
                ],
                [
                    -0.09,
                    0.20135,
                    -1.47753
                ]
            ]
        ]
    },
    "band_gap": 1.1260000000000003,
    "is_direct": true,
    "formula": "LiSb3O8"
}