{
    "mp_id": "mp-23341",
    "nelements": 3,
    "nsites": 22,
    "elements": [
        "Bi",
        "O",
        "Pt"
    ],
    "structure": {
        "@module": "pymatgen.core.structure",
        "@class": "Structure",
        "charge": null,
        "lattice": {
            "matrix": [
                [
                    0.0,
                    5.18365583,
                    5.18365583
                ],
                [
                    5.18365583,
                    0.0,
                    5.18365583
                ],
                [
                    5.18365583,
                    5.18365583,
                    0.0
                ]
            ],
            "a": 7.330796377460363,
            "b": 7.330796377460363,
            "c": 7.330796377460363,
            "alpha": 60.00000000000001,
            "beta": 60.00000000000001,
            "gamma": 60.00000000000001,
            "volume": 278.57264764216313
        },
        "sites": [
            {
                "species": [
                    {
                        "element": "Bi",
                        "occu": 1
                    }
                ],
                "abc": [
                    0.625,
                    0.625,
                    0.125
                ],
                "xyz": [
                    3.8877418725,
                    3.8877418725,
                    6.4795697875
                ],
                "label": "Bi",
                "properties": {}
            },
            {
                "species": [
                    {
                        "element": "Bi",
                        "occu": 1
                    }
                ],
                "abc": [
                    0.625,
                    0.125,
                    0.625
                ],
                "xyz": [
                    3.8877418725,
                    6.4795697875,
                    3.8877418725
                ],
                "label": "Bi",
                "properties": {}
            },
            {
                "species": [
                    {
                        "element": "Bi",
                        "occu": 1
                    }
                ],
                "abc": [
                    0.125,
                    0.625,
                    0.625
                ],
                "xyz": [
                    6.4795697875,
                    3.8877418725,
                    3.8877418725
                ],
                "label": "Bi",
                "properties": {}
            },
            {
                "species": [
                    {
                        "element": "Bi",
                        "occu": 1
                    }
                ],
                "abc": [
                    0.625,
                    0.625,
                    0.625
                ],
                "xyz": [
                    6.4795697875,
                    6.4795697875,
                    6.4795697875
                ],
                "label": "Bi",
                "properties": {}
            },
            {
                "species": [
                    {
                        "element": "Pt",
                        "occu": 1
                    }
                ],
                "abc": [
                    0.125,
                    0.125,
                    0.625
                ],
                "xyz": [
                    3.8877418725,
                    3.8877418725,
                    1.2959139575
                ],
                "label": "Pt",
                "properties": {}
            },
            {
                "species": [
                    {
                        "element": "Pt",
                        "occu": 1
                    }
                ],
                "abc": [
                    0.125,
                    0.625,
                    0.125
                ],
                "xyz": [
                    3.8877418725,
                    1.2959139575,
                    3.8877418725
                ],
                "label": "Pt",
                "properties": {}
            },
            {
                "species": [
                    {
                        "element": "Pt",
                        "occu": 1
                    }
                ],
                "abc": [
                    0.625,
                    0.125,
                    0.125
                ],
                "xyz": [
                    1.2959139575,
                    3.8877418725,
                    3.8877418725
                ],
                "label": "Pt",
                "properties": {}
            },
            {
                "species": [
                    {
                        "element": "Pt",
                        "occu": 1
                    }
                ],
                "abc": [
                    0.125,
                    0.125,
                    0.125
                ],
                "xyz": [
                    1.2959139575,
                    1.2959139575,
                    1.2959139575
                ],
                "label": "Pt",
                "properties": {}
            },
            {
                "species": [
                    {
                        "element": "O",
                        "occu": 1
                    }
                ],
                "abc": [
                    0.75,
                    0.75,
                    0.75
                ],
                "xyz": [
                    7.775483745000001,
                    7.775483745000001,
                    7.775483745000001
                ],
                "label": "O",
                "properties": {}
            },
            {
                "species": [
                    {
                        "element": "O",
                        "occu": 1
                    }
                ],
                "abc": [
                    0.5,
                    0.5,
                    0.5
                ],
                "xyz": [
                    5.18365583,
                    5.18365583,
                    5.18365583
                ],
                "label": "O",
                "properties": {}
            },
            {
                "species": [
                    {
                        "element": "O",
                        "occu": 1
                    }
                ],
                "abc": [
                    0.043677,
                    0.456323,
                    0.043677
                ],
                "xyz": [
                    2.5918279149999996,
                    0.45281307137382004,
                    2.5918279149999996
                ],
                "label": "O",
                "properties": {}
            },
            {
                "species": [
                    {
                        "element": "O",
                        "occu": 1
                    }
                ],
                "abc": [
                    0.793677,
                    0.206323,
                    0.793677
                ],
                "xyz": [
                    5.18365583,
                    8.22829681637382,
                    5.18365583
                ],
                "label": "O",
                "properties": {}
            },
            {
                "species": [
                    {
                        "element": "O",
                        "occu": 1
                    }
                ],
                "abc": [
                    0.043677,
                    0.043677,
                    0.456323
                ],
                "xyz": [
                    2.5918279149999996,
                    2.5918279149999996,
                    0.45281307137382004
                ],
                "label": "O",
                "properties": {}
            },
            {
                "species": [
                    {
                        "element": "O",
                        "occu": 1
                    }
                ],
                "abc": [
                    0.456323,
                    0.043677,
                    0.043677
                ],
                "xyz": [
                    0.45281307137382004,
                    2.5918279149999996,
                    2.5918279149999996
                ],
                "label": "O",
                "properties": {}
            },
            {
                "species": [
                    {
                        "element": "O",
                        "occu": 1
                    }
                ],
                "abc": [
                    0.043677,
                    0.456323,
                    0.456323
                ],
                "xyz": [
                    4.73084275862618,
                    2.5918279149999996,
                    2.5918279149999996
                ],
                "label": "O",
                "properties": {}
            },
            {
                "species": [
                    {
                        "element": "O",
                        "occu": 1
                    }
                ],
                "abc": [
                    0.456323,
                    0.456323,
                    0.043677
                ],
                "xyz": [
                    2.5918279149999996,
                    2.5918279149999996,
                    4.73084275862618
                ],
                "label": "O",
                "properties": {}
            },
            {
                "species": [
                    {
                        "element": "O",
                        "occu": 1
                    }
                ],
                "abc": [
                    0.456323,
                    0.043677,
                    0.456323
                ],
                "xyz": [
                    2.5918279149999996,
                    4.73084275862618,
                    2.5918279149999996
                ],
                "label": "O",
                "properties": {}
            },
            {
                "species": [
                    {
                        "element": "O",
                        "occu": 1
                    }
                ],
                "abc": [
                    0.206323,
                    0.793677,
                    0.793677
                ],
                "xyz": [
                    8.22829681637382,
                    5.18365583,
                    5.18365583
                ],
                "label": "O",
                "properties": {}
            },
            {
                "species": [
                    {
                        "element": "O",
                        "occu": 1
                    }
                ],
                "abc": [
                    0.793677,
                    0.206323,
                    0.206323
                ],
                "xyz": [
                    2.13901484362618,
                    5.18365583,
                    5.18365583
                ],
                "label": "O",
                "properties": {}
            },
            {
                "species": [
                    {
                        "element": "O",
                        "occu": 1
                    }
                ],
                "abc": [
                    0.206323,
                    0.793677,
                    0.206323
                ],
                "xyz": [
                    5.18365583,
                    2.13901484362618,
                    5.18365583
                ],
                "label": "O",
                "properties": {}
            },
            {
                "species": [
                    {
                        "element": "O",
                        "occu": 1
                    }
                ],
                "abc": [
                    0.793677,
                    0.793677,
                    0.206323
                ],
                "xyz": [
                    5.18365583,
                    5.18365583,
                    8.22829681637382
                ],
                "label": "O",
                "properties": {}
            },
            {
                "species": [
                    {
                        "element": "O",
                        "occu": 1
                    }
                ],
                "abc": [
                    0.206323,
                    0.206323,
                    0.793677
                ],
                "xyz": [
                    5.18365583,
                    5.18365583,
                    2.13901484362618
                ],
                "label": "O",
                "properties": {}
            }
        ]
    },
    "spacegroup": {
        "source": "spglib",
        "symbol": "Fd-3m",
        "number": 227,
        "point_group": "m-3m",
        "crystal_system": "cubic",
        "hall": "F 4d 2 3 -1d"
    },
    "dielectric": {
        "epsilon_ionic": [
            [
                15.69474846,
                -0.0,
                -0.0
            ],
            [
                -0.0,
                15.69464997,
                0.0
            ],
            [
                -0.0,
                0.0,
                15.69484967
            ]
        ],
        "epsilon_ionic_avg": 15.694749366666665,
        "epsilon_ionic_eig": [
            15.69474846,
            15.69464997,
            15.69484967
        ],
        "epsilon_electronic": [
            [
                8.85551605,
                -0.0,
                0.0
            ],
            [
                0.0,
                8.85551605,
                0.0
            ],
            [
                -0.0,
                0.0,
                8.85551605
            ]
        ],
        "epsilon_electronic_avg": 8.85551605,
        "epsilon_electronic_eig": [
            8.85551605,
            8.85551605,
            8.85551605
        ]
    },
    "phonon": {
        "lowest_freq": -0.025934005385589216,
        "frequency": [
            -0.025934005385589216,
            -0.025934005385589216,
            -0.025934005385589216,
            0.9123184154803667,
            0.9123184154803667,
            0.9123184154803667,
            1.5477987179786359,
            1.5477987179786359,
            1.5477987179786359,
            2.386091730494636,
            2.386091730494636,
            3.100140110912406,
            3.100140110912406,
            3.100140110912406,
            4.8662823236112125,
            4.8662823236112125,
            4.8662823236112125,
            5.632149613676955,
            5.632149613676955,
            5.632149613676955,
            5.784273023045641,
            5.784273023045641,
            6.303584633738989,
            6.895395171006485,
            7.296224487912694,
            7.296224487912694,
            7.296224487912694,
            7.436239603270266,
            7.436239603270266,
            7.436239603270266,
            9.07793908283304,
            9.07793908283304,
            9.07793908283304,
            9.267099391916561,
            9.267099391916561,
            9.267099391916561,
            9.379466003411727,
            9.379466003411727,
            9.379466003411727,
            12.722925065406354,
            12.722925065406354,
            13.201441833902642,
            13.201441833902642,
            13.201441833902642,
            14.533296898227416,
            14.995778279933425,
            15.436336739305805,
            15.436336739305805,
            15.436336739305805,
            15.653976659336175,
            15.653976659336175,
            15.653976659336175,
            15.839736805671905,
            15.839736805671905,
            17.592937569150482,
            17.592937569150482,
            17.592937569150482,
            18.20738670267931,
            18.20738670267931,
            18.20738670267931,
            18.92166644093476,
            18.92166644093476,
            18.92166644093476,
            19.654892327155864,
            19.654892327155864,
            19.654892327155864
        ]
    },
    "born_effective_charge": {
        "avg_abs_trace": 2.5384027272727274,
        "tensors": [
            [
                [
                    4.83635,
                    0.32859,
                    -0.32859
                ],
                [
                    0.32864,
                    4.83632,
                    -0.32864
                ],
                [
                    -0.32865,
                    -0.32865,
                    4.83626
                ]
            ],
            [
                [
                    4.83635,
                    -0.32859,
                    0.32859
                ],
                [
                    -0.32864,
                    4.83632,
                    -0.32864
                ],
                [
                    0.32865,
                    -0.32865,
                    4.83626
                ]
            ],
            [
                [
                    4.83635,
                    -0.32859,
                    -0.32859
                ],
                [
                    -0.32864,
                    4.83632,
                    0.32864
                ],
                [
                    -0.32865,
                    0.32865,
                    4.83626
                ]
            ],
            [
                [
                    4.83635,
                    0.32859,
                    0.32859
                ],
                [
                    0.32864,
                    4.83632,
                    0.32864
                ],
                [
                    0.32865,
                    0.32865,
                    4.83626
                ]
            ],
            [
                [
                    2.14425,
                    -0.89932,
                    0.89932
                ],
                [
                    -0.89928,
                    2.14435,
                    0.89928
                ],
                [
                    0.8994,
                    0.8994,
                    2.14429
                ]
            ],
            [
                [
                    2.14425,
                    0.89932,
                    -0.89932
                ],
                [
                    0.89928,
                    2.14435,
                    0.89928
                ],
                [
                    -0.8994,
                    0.8994,
                    2.14429
                ]
            ],
            [
                [
                    2.14425,
                    0.89932,
                    0.89932
                ],
                [
                    0.89928,
                    2.14435,
                    -0.89928
                ],
                [
                    0.8994,
                    -0.8994,
                    2.14429
                ]
            ],
            [
                [
                    2.14425,
                    -0.89932,
                    -0.89932
                ],
                [
                    -0.89928,
                    2.14435,
                    -0.89928
                ],
                [
                    -0.8994,
                    -0.8994,
                    2.14429
                ]
            ],
            [
                [
                    -3.25902,
                    0.0,
                    0.0
                ],
                [
                    0.0,
                    -3.25901,
                    -0.0
                ],
                [
                    -0.0,
                    0.0,
                    -3.2589
                ]
            ],
            [
                [
                    -3.25902,
                    0.0,
                    0.0
                ],
                [
                    0.0,
                    -3.25901,
                    -0.0
                ],
                [
                    -0.0,
                    0.0,
                    -3.2589
                ]
            ],
            [
                [
                    -1.95386,
                    -7e-05,
                    -0.56487
                ],
                [
                    0.0,
                    -1.44325,
                    -0.0
                ],
                [
                    -0.5648,
                    -1e-05,
                    -1.95393
                ]
            ],
            [
                [
                    -1.95386,
                    -7e-05,
                    0.56487
                ],
                [
                    0.0,
                    -1.44325,
                    -0.0
                ],
                [
                    0.5648,
                    -1e-05,
                    -1.95393
                ]
            ],
            [
                [
                    -1.95386,
                    -0.56487,
                    -7e-05
                ],
                [
                    -0.56492,
                    -1.95394,
                    2e-05
                ],
                [
                    0.0,
                    0.0,
                    -1.4431
                ]
            ],
            [
                [
                    -1.44334,
                    0.0,
                    0.0
                ],
                [
                    2e-05,
                    -1.95394,
                    -0.56492
                ],
                [
                    -1e-05,
                    -0.5648,
                    -1.95393
                ]
            ],
            [
                [
                    -1.4434,
                    0.0,
                    0.0
                ],
                [
                    -2e-05,
                    -1.95394,
                    0.56492
                ],
                [
                    1e-05,
                    0.5648,
                    -1.95393
                ]
            ],
            [
                [
                    -1.95386,
                    0.56487,
                    7e-05
                ],
                [
                    0.56492,
                    -1.95394,
                    -2e-05
                ],
                [
                    -0.0,
                    -0.0,
                    -1.44337
                ]
            ],
            [
                [
                    -1.95386,
                    7e-05,
                    0.56487
                ],
                [
                    0.0,
                    -1.44334,
                    -0.0
                ],
                [
                    0.5648,
                    1e-05,
                    -1.95393
                ]
            ],
            [
                [
                    -1.44334,
                    -0.0,
                    -0.0
                ],
                [
                    2e-05,
                    -1.95394,
                    0.56492
                ],
                [
                    -1e-05,
                    0.5648,
                    -1.95393
                ]
            ],
            [
                [
                    -1.4434,
                    0.0,
                    0.0
                ],
                [
                    -2e-05,
                    -1.95394,
                    -0.56492
                ],
                [
                    1e-05,
                    -0.5648,
                    -1.95393
                ]
            ],
            [
                [
                    -1.95386,
                    7e-05,
                    -0.56487
                ],
                [
                    0.0,
                    -1.44334,
                    -0.0
                ],
                [
                    -0.5648,
                    1e-05,
                    -1.95393
                ]
            ],
            [
                [
                    -1.95386,
                    0.56487,
                    -7e-05
                ],
                [
                    0.56492,
                    -1.95394,
                    2e-05
                ],
                [
                    -0.0,
                    0.0,
                    -1.4431
                ]
            ],
            [
                [
                    -1.95386,
                    -0.56487,
                    7e-05
                ],
                [
                    -0.56492,
                    -1.95394,
                    -2e-05
                ],
                [
                    0.0,
                    0.0,
                    -1.44337
                ]
            ]
        ]
    },
    "band_gap": 1.0482000000000005,
    "is_direct": false,
    "formula": "Bi2Pt2O7"
}