{
    "mp_id": "mp-20489",
    "nelements": 3,
    "nsites": 20,
    "elements": [
        "O",
        "Pb",
        "Sr"
    ],
    "structure": {
        "@module": "pymatgen.core.structure",
        "@class": "Structure",
        "charge": null,
        "lattice": {
            "matrix": [
                [
                    6.04713423,
                    0.0,
                    0.0
                ],
                [
                    0.0,
                    8.36296865,
                    0.0
                ],
                [
                    0.0,
                    0.0,
                    5.87673287
                ]
            ],
            "a": 6.04713423,
            "b": 8.36296865,
            "c": 5.87673287,
            "alpha": 90.0,
            "beta": 90.0,
            "gamma": 90.0,
            "volume": 297.198099369734
        },
        "sites": [
            {
                "species": [
                    {
                        "element": "Sr",
                        "occu": 1
                    }
                ],
                "abc": [
                    0.05334866,
                    0.75,
                    0.48517226
                ],
                "xyz": [
                    0.3226065080106318,
                    6.272226487499999,
                    2.851227767954186
                ],
                "label": "Sr",
                "properties": {}
            },
            {
                "species": [
                    {
                        "element": "Sr",
                        "occu": 1
                    }
                ],
                "abc": [
                    0.44665134,
                    0.25,
                    0.98517226
                ],
                "xyz": [
                    2.7009606069893684,
                    2.0907421625,
                    5.789594202954186
                ],
                "label": "Sr",
                "properties": {}
            },
            {
                "species": [
                    {
                        "element": "Sr",
                        "occu": 1
                    }
                ],
                "abc": [
                    0.94665134,
                    0.25,
                    0.51482774
                ],
                "xyz": [
                    5.724527721989368,
                    2.0907421625,
                    3.0255051020458135
                ],
                "label": "Sr",
                "properties": {}
            },
            {
                "species": [
                    {
                        "element": "Sr",
                        "occu": 1
                    }
                ],
                "abc": [
                    0.55334866,
                    0.75,
                    0.01482774
                ],
                "xyz": [
                    3.3461736230106323,
                    6.272226487499999,
                    0.0871386670458138
                ],
                "label": "Sr",
                "properties": {}
            },
            {
                "species": [
                    {
                        "element": "Pb",
                        "occu": 1
                    }
                ],
                "abc": [
                    0.0,
                    0.5,
                    0.0
                ],
                "xyz": [
                    0.0,
                    4.181484325,
                    0.0
                ],
                "label": "Pb",
                "properties": {}
            },
            {
                "species": [
                    {
                        "element": "Pb",
                        "occu": 1
                    }
                ],
                "abc": [
                    0.5,
                    0.0,
                    0.5
                ],
                "xyz": [
                    3.023567115,
                    0.0,
                    2.938366435
                ],
                "label": "Pb",
                "properties": {}
            },
            {
                "species": [
                    {
                        "element": "Pb",
                        "occu": 1
                    }
                ],
                "abc": [
                    0.5,
                    0.5,
                    0.5
                ],
                "xyz": [
                    3.023567115,
                    4.181484325,
                    2.938366435
                ],
                "label": "Pb",
                "properties": {}
            },
            {
                "species": [
                    {
                        "element": "Pb",
                        "occu": 1
                    }
                ],
                "abc": [
                    0.0,
                    0.0,
                    0.0
                ],
                "xyz": [
                    0.0,
                    0.0,
                    0.0
                ],
                "label": "Pb",
                "properties": {}
            },
            {
                "species": [
                    {
                        "element": "O",
                        "occu": 1
                    }
                ],
                "abc": [
                    0.45823148,
                    0.75,
                    0.60468377
                ],
                "xyz": [
                    2.770987267971561,
                    6.272226487499999,
                    3.5535649871145196
                ],
                "label": "O",
                "properties": {}
            },
            {
                "species": [
                    {
                        "element": "O",
                        "occu": 1
                    }
                ],
                "abc": [
                    0.79723934,
                    0.94485863,
                    0.30060676
                ],
                "xyz": [
                    4.821013302416608,
                    7.901823101371949,
                    1.7665856274362008
                ],
                "label": "O",
                "properties": {}
            },
            {
                "species": [
                    {
                        "element": "O",
                        "occu": 1
                    }
                ],
                "abc": [
                    0.04176852,
                    0.25,
                    0.10468377
                ],
                "xyz": [
                    0.2525798470284396,
                    2.0907421625,
                    0.6151985521145198
                ],
                "label": "O",
                "properties": {}
            },
            {
                "species": [
                    {
                        "element": "O",
                        "occu": 1
                    }
                ],
                "abc": [
                    0.29723934,
                    0.94485863,
                    0.19939324
                ],
                "xyz": [
                    1.7974461874166083,
                    7.901823101371949,
                    1.1717808075637988
                ],
                "label": "O",
                "properties": {}
            },
            {
                "species": [
                    {
                        "element": "O",
                        "occu": 1
                    }
                ],
                "abc": [
                    0.79723934,
                    0.55514137,
                    0.30060676
                ],
                "xyz": [
                    4.821013302416608,
                    4.642629873628049,
                    1.7665856274362008
                ],
                "label": "O",
                "properties": {}
            },
            {
                "species": [
                    {
                        "element": "O",
                        "occu": 1
                    }
                ],
                "abc": [
                    0.95823148,
                    0.75,
                    0.89531623
                ],
                "xyz": [
                    5.794554382971561,
                    6.272226487499999,
                    5.26153431788548
                ],
                "label": "O",
                "properties": {}
            },
            {
                "species": [
                    {
                        "element": "O",
                        "occu": 1
                    }
                ],
                "abc": [
                    0.70276066,
                    0.05514137,
                    0.80060676
                ],
                "xyz": [
                    4.249688042583392,
                    0.46114554862805046,
                    4.704952062436201
                ],
                "label": "O",
                "properties": {}
            },
            {
                "species": [
                    {
                        "element": "O",
                        "occu": 1
                    }
                ],
                "abc": [
                    0.20276066,
                    0.05514137,
                    0.69939324
                ],
                "xyz": [
                    1.226120927583392,
                    0.46114554862805046,
                    4.110147242563799
                ],
                "label": "O",
                "properties": {}
            },
            {
                "species": [
                    {
                        "element": "O",
                        "occu": 1
                    }
                ],
                "abc": [
                    0.54176852,
                    0.25,
                    0.39531623
                ],
                "xyz": [
                    3.2761469620284394,
                    2.0907421625,
                    2.32316788288548
                ],
                "label": "O",
                "properties": {}
            },
            {
                "species": [
                    {
                        "element": "O",
                        "occu": 1
                    }
                ],
                "abc": [
                    0.70276066,
                    0.44485863,
                    0.80060676
                ],
                "xyz": [
                    4.249688042583392,
                    3.720338776371949,
                    4.704952062436201
                ],
                "label": "O",
                "properties": {}
            },
            {
                "species": [
                    {
                        "element": "O",
                        "occu": 1
                    }
                ],
                "abc": [
                    0.20276066,
                    0.44485863,
                    0.69939324
                ],
                "xyz": [
                    1.226120927583392,
                    3.720338776371949,
                    4.110147242563799
                ],
                "label": "O",
                "properties": {}
            },
            {
                "species": [
                    {
                        "element": "O",
                        "occu": 1
                    }
                ],
                "abc": [
                    0.29723934,
                    0.55514137,
                    0.19939324
                ],
                "xyz": [
                    1.7974461874166083,
                    4.642629873628049,
                    1.1717808075637988
                ],
                "label": "O",
                "properties": {}
            }
        ]
    },
    "spacegroup": {
        "source": "spglib",
        "symbol": "Pnma",
        "number": 62,
        "point_group": "mmm",
        "crystal_system": "orthorhombic",
        "hall": "-P 2ac 2n"
    },
    "dielectric": {
        "epsilon_ionic": [
            [
                12.30397969,
                3.1e-07,
                3.2e-07
            ],
            [
                3.1e-07,
                24.68315094,
                -1.1e-07
            ],
            [
                3.2e-07,
                -1.1e-07,
                13.05067909
            ]
        ],
        "epsilon_ionic_avg": 16.679269906666665,
        "epsilon_ionic_eig": [
            12.303979689999858,
            13.05067909000013,
            24.68315094000001
        ],
        "epsilon_electronic": [
            [
                6.50231438,
                0.0,
                -0.0
            ],
            [
                0.0,
                6.38400536,
                0.0
            ],
            [
                0.0,
                0.0,
                6.24041381
            ]
        ],
        "epsilon_electronic_avg": 6.375577849999999,
        "epsilon_electronic_eig": [
            6.50231438,
            6.38400536,
            6.24041381
        ]
    },
    "phonon": {
        "lowest_freq": -0.05803875484612336,
        "frequency": [
            -0.05803875484612336,
            -0.01865790345756686,
            -0.015846362183600554,
            1.6032324231179869,
            2.209466108836406,
            2.7296587605971325,
            2.798849783086234,
            2.8407780877420494,
            2.9364648548586323,
            3.075733448462892,
            3.115048773665488,
            3.2617179338452376,
            3.2787176521860393,
            3.4041053102790886,
            3.4158646779338433,
            3.7866534407106345,
            3.927796623008537,
            4.056038279859507,
            4.310088361980747,
            4.40949060523819,
            4.480509772486861,
            4.48368082403241,
            4.660769531718695,
            5.163757414214227,
            5.180230224852946,
            5.370440931845313,
            5.44127149738359,
            5.820626787657441,
            6.071151378249006,
            6.1666414719528495,
            6.28359309400247,
            6.295449209738173,
            7.092401333665077,
            7.263563812971221,
            8.412084351338379,
            8.628146529762233,
            8.785845596399234,
            9.170771609968012,
            9.18936028951527,
            9.44695525330759,
            9.76341197974554,
            10.366895914402194,
            10.389170414208337,
            10.563729860189174,
            10.665565805637822,
            10.748896541988614,
            11.75061412109147,
            11.862038631415672,
            12.238303717324056,
            12.513868927062104,
            12.527273984510645,
            15.383535322901677,
            15.483079613113615,
            15.542483466817194,
            15.811780315104668,
            15.82107842453523,
            16.065379695737647,
            17.195767727731415,
            17.71388009060179,
            17.9338270016304
        ]
    },
    "born_effective_charge": {
        "avg_abs_trace": 2.8275500000000005,
        "tensors": [
            [
                [
                    2.52262,
                    -0.0,
                    0.43278
                ],
                [
                    0.00011,
                    2.35869,
                    0.0003
                ],
                [
                    0.12145,
                    -0.0,
                    2.48164
                ]
            ],
            [
                [
                    2.5223,
                    -0.0,
                    -0.43212
                ],
                [
                    -0.00011,
                    2.35869,
                    0.0003
                ],
                [
                    -0.12145,
                    -0.0,
                    2.48164
                ]
            ],
            [
                [
                    2.5223,
                    -0.0,
                    0.43212
                ],
                [
                    -0.00011,
                    2.35869,
                    -0.0003
                ],
                [
                    0.12149,
                    -0.0,
                    2.48142
                ]
            ],
            [
                [
                    2.52262,
                    -0.0,
                    -0.43278
                ],
                [
                    0.00011,
                    2.35869,
                    -0.0003
                ],
                [
                    -0.12149,
                    -0.0,
                    2.48142
                ]
            ],
            [
                [
                    4.74703,
                    0.05362,
                    -0.77599
                ],
                [
                    -0.3184,
                    4.55258,
                    -1.02743
                ],
                [
                    0.64091,
                    1.16224,
                    4.54434
                ]
            ],
            [
                [
                    4.74703,
                    -0.05362,
                    0.77599
                ],
                [
                    0.3184,
                    4.55258,
                    -1.02743
                ],
                [
                    -0.64091,
                    1.16224,
                    4.54434
                ]
            ],
            [
                [
                    4.74703,
                    0.05362,
                    0.77599
                ],
                [
                    -0.3184,
                    4.55258,
                    1.02743
                ],
                [
                    -0.64091,
                    -1.16224,
                    4.54434
                ]
            ],
            [
                [
                    4.74703,
                    -0.05362,
                    -0.77599
                ],
                [
                    0.3184,
                    4.55258,
                    1.02743
                ],
                [
                    0.64091,
                    -1.16224,
                    4.54434
                ]
            ],
            [
                [
                    -1.77432,
                    -0.0,
                    -0.24049
                ],
                [
                    -0.00015,
                    -3.19541,
                    0.00038
                ],
                [
                    -0.02413,
                    -0.0,
                    -2.08036
                ]
            ],
            [
                [
                    -2.7477,
                    0.17251,
                    0.71326
                ],
                [
                    0.15657,
                    -1.85811,
                    0.05523
                ],
                [
                    0.69833,
                    -0.00239,
                    -2.47305
                ]
            ],
            [
                [
                    -1.77423,
                    -0.0,
                    0.24036
                ],
                [
                    0.00015,
                    -3.19541,
                    0.00038
                ],
                [
                    0.02413,
                    -0.0,
                    -2.08036
                ]
            ],
            [
                [
                    -2.7477,
                    0.17251,
                    -0.71326
                ],
                [
                    0.15657,
                    -1.85811,
                    -0.05523
                ],
                [
                    -0.69932,
                    0.00324,
                    -2.47279
                ]
            ],
            [
                [
                    -2.7477,
                    -0.17251,
                    0.71326
                ],
                [
                    -0.15636,
                    -1.85774,
                    -0.05575
                ],
                [
                    0.69833,
                    0.00239,
                    -2.47305
                ]
            ],
            [
                [
                    -1.77432,
                    -0.0,
                    0.24049
                ],
                [
                    -0.00015,
                    -3.19541,
                    -0.00038
                ],
                [
                    0.02457,
                    -0.0,
                    -2.07971
                ]
            ],
            [
                [
                    -2.74751,
                    0.17233,
                    -0.71454
                ],
                [
                    0.15636,
                    -1.85774,
                    -0.05575
                ],
                [
                    -0.69833,
                    0.00239,
                    -2.47305
                ]
            ],
            [
                [
                    -2.74751,
                    0.17233,
                    0.71454
                ],
                [
                    0.15636,
                    -1.85774,
                    0.05575
                ],
                [
                    0.69932,
                    -0.00324,
                    -2.47279
                ]
            ],
            [
                [
                    -1.77423,
                    -0.0,
                    -0.24036
                ],
                [
                    0.00015,
                    -3.19541,
                    -0.00038
                ],
                [
                    -0.02457,
                    -0.0,
                    -2.07971
                ]
            ],
            [
                [
                    -2.74751,
                    -0.17233,
                    -0.71454
                ],
                [
                    -0.15657,
                    -1.85811,
                    0.05523
                ],
                [
                    -0.69833,
                    -0.00239,
                    -2.47305
                ]
            ],
            [
                [
                    -2.74751,
                    -0.17233,
                    0.71454
                ],
                [
                    -0.15657,
                    -1.85811,
                    -0.05523
                ],
                [
                    0.69932,
                    0.00324,
                    -2.47279
                ]
            ],
            [
                [
                    -2.7477,
                    -0.17251,
                    -0.71326
                ],
                [
                    -0.15636,
                    -1.85774,
                    0.05575
                ],
                [
                    -0.69932,
                    -0.00324,
                    -2.47279
                ]
            ]
        ]
    },
    "band_gap": 0.8851,
    "is_direct": false,
    "formula": "SrPbO3"
}