{
    "mp_id": "mp-29505",
    "nelements": 3,
    "nsites": 28,
    "elements": [
        "Bi",
        "Cs",
        "O"
    ],
    "structure": {
        "@module": "pymatgen.core.structure",
        "@class": "Structure",
        "charge": null,
        "lattice": {
            "matrix": [
                [
                    9.17695846,
                    0.0,
                    0.0
                ],
                [
                    0.0,
                    9.17695846,
                    0.0
                ],
                [
                    0.0,
                    0.0,
                    9.17695846
                ]
            ],
            "a": 9.17695846,
            "b": 9.17695846,
            "c": 9.17695846,
            "alpha": 90.0,
            "beta": 90.0,
            "gamma": 90.0,
            "volume": 772.8519331169666
        },
        "sites": [
            {
                "species": [
                    {
                        "element": "Cs",
                        "occu": 1
                    }
                ],
                "abc": [
                    0.02825902,
                    0.02825902,
                    0.02825902
                ],
                "xyz": [
                    0.25933185266030917,
                    0.25933185266030917,
                    0.25933185266030917
                ],
                "label": "Cs",
                "properties": {}
            },
            {
                "species": [
                    {
                        "element": "Cs",
                        "occu": 1
                    }
                ],
                "abc": [
                    0.47174098,
                    0.97174098,
                    0.52825902
                ],
                "xyz": [
                    4.329147377339691,
                    8.91762660733969,
                    4.847811082660309
                ],
                "label": "Cs",
                "properties": {}
            },
            {
                "species": [
                    {
                        "element": "Cs",
                        "occu": 1
                    }
                ],
                "abc": [
                    0.52825902,
                    0.47174098,
                    0.97174098
                ],
                "xyz": [
                    4.847811082660309,
                    4.329147377339691,
                    8.91762660733969
                ],
                "label": "Cs",
                "properties": {}
            },
            {
                "species": [
                    {
                        "element": "Cs",
                        "occu": 1
                    }
                ],
                "abc": [
                    0.97174098,
                    0.52825902,
                    0.47174098
                ],
                "xyz": [
                    8.91762660733969,
                    4.847811082660309,
                    4.329147377339691
                ],
                "label": "Cs",
                "properties": {}
            },
            {
                "species": [
                    {
                        "element": "Cs",
                        "occu": 1
                    }
                ],
                "abc": [
                    0.96814778,
                    0.46814778,
                    0.03185222
                ],
                "xyz": [
                    8.884651960201218,
                    4.296172730201219,
                    0.2923064997987812
                ],
                "label": "Cs",
                "properties": {}
            },
            {
                "species": [
                    {
                        "element": "Cs",
                        "occu": 1
                    }
                ],
                "abc": [
                    0.53185222,
                    0.53185222,
                    0.53185222
                ],
                "xyz": [
                    4.880785729798781,
                    4.880785729798781,
                    4.880785729798781
                ],
                "label": "Cs",
                "properties": {}
            },
            {
                "species": [
                    {
                        "element": "Cs",
                        "occu": 1
                    }
                ],
                "abc": [
                    0.2320742,
                    0.2679258,
                    0.7320742
                ],
                "xyz": [
                    2.129735293037732,
                    2.458743936962268,
                    6.718214523037732
                ],
                "label": "Cs",
                "properties": {}
            },
            {
                "species": [
                    {
                        "element": "Cs",
                        "occu": 1
                    }
                ],
                "abc": [
                    0.2679258,
                    0.7320742,
                    0.2320742
                ],
                "xyz": [
                    2.458743936962268,
                    6.718214523037732,
                    2.129735293037732
                ],
                "label": "Cs",
                "properties": {}
            },
            {
                "species": [
                    {
                        "element": "Cs",
                        "occu": 1
                    }
                ],
                "abc": [
                    0.7320742,
                    0.2320742,
                    0.2679258
                ],
                "xyz": [
                    6.718214523037732,
                    2.129735293037732,
                    2.458743936962268
                ],
                "label": "Cs",
                "properties": {}
            },
            {
                "species": [
                    {
                        "element": "Cs",
                        "occu": 1
                    }
                ],
                "abc": [
                    0.7679258,
                    0.7679258,
                    0.7679258
                ],
                "xyz": [
                    7.047223166962268,
                    7.047223166962268,
                    7.047223166962268
                ],
                "label": "Cs",
                "properties": {}
            },
            {
                "species": [
                    {
                        "element": "Cs",
                        "occu": 1
                    }
                ],
                "abc": [
                    0.46814778,
                    0.03185222,
                    0.96814778
                ],
                "xyz": [
                    4.296172730201219,
                    0.2923064997987812,
                    8.884651960201218
                ],
                "label": "Cs",
                "properties": {}
            },
            {
                "species": [
                    {
                        "element": "Cs",
                        "occu": 1
                    }
                ],
                "abc": [
                    0.03185222,
                    0.96814778,
                    0.46814778
                ],
                "xyz": [
                    0.2923064997987812,
                    8.884651960201218,
                    4.296172730201219
                ],
                "label": "Cs",
                "properties": {}
            },
            {
                "species": [
                    {
                        "element": "Bi",
                        "occu": 1
                    }
                ],
                "abc": [
                    0.74197523,
                    0.75802477,
                    0.24197523
                ],
                "xyz": [
                    6.809075864058945,
                    6.9563618259410545,
                    2.220596634058946
                ],
                "label": "Bi",
                "properties": {}
            },
            {
                "species": [
                    {
                        "element": "Bi",
                        "occu": 1
                    }
                ],
                "abc": [
                    0.75802477,
                    0.24197523,
                    0.74197523
                ],
                "xyz": [
                    6.9563618259410545,
                    2.220596634058946,
                    6.809075864058945
                ],
                "label": "Bi",
                "properties": {}
            },
            {
                "species": [
                    {
                        "element": "Bi",
                        "occu": 1
                    }
                ],
                "abc": [
                    0.24197523,
                    0.74197523,
                    0.75802477
                ],
                "xyz": [
                    2.220596634058946,
                    6.809075864058945,
                    6.9563618259410545
                ],
                "label": "Bi",
                "properties": {}
            },
            {
                "species": [
                    {
                        "element": "Bi",
                        "occu": 1
                    }
                ],
                "abc": [
                    0.25802477,
                    0.25802477,
                    0.25802477
                ],
                "xyz": [
                    2.367882595941054,
                    2.367882595941054,
                    2.367882595941054
                ],
                "label": "Bi",
                "properties": {}
            },
            {
                "species": [
                    {
                        "element": "O",
                        "occu": 1
                    }
                ],
                "abc": [
                    0.5345334,
                    0.24566599,
                    0.70393508
                ],
                "xyz": [
                    4.905390807282564,
                    2.254466585264775,
                    6.459982987696777
                ],
                "label": "O",
                "properties": {}
            },
            {
                "species": [
                    {
                        "element": "O",
                        "occu": 1
                    }
                ],
                "abc": [
                    0.0345334,
                    0.25433401,
                    0.29606492
                ],
                "xyz": [
                    0.31691157728256397,
                    2.3340126447352247,
                    2.7169754723032233
                ],
                "label": "O",
                "properties": {}
            },
            {
                "species": [
                    {
                        "element": "O",
                        "occu": 1
                    }
                ],
                "abc": [
                    0.4654666,
                    0.74566599,
                    0.79606492
                ],
                "xyz": [
                    4.271567652717436,
                    6.842945815264775,
                    7.305454702303223
                ],
                "label": "O",
                "properties": {}
            },
            {
                "species": [
                    {
                        "element": "O",
                        "occu": 1
                    }
                ],
                "abc": [
                    0.25433401,
                    0.29606492,
                    0.0345334
                ],
                "xyz": [
                    2.3340126447352247,
                    2.7169754723032233,
                    0.31691157728256397
                ],
                "label": "O",
                "properties": {}
            },
            {
                "species": [
                    {
                        "element": "O",
                        "occu": 1
                    }
                ],
                "abc": [
                    0.24566599,
                    0.70393508,
                    0.5345334
                ],
                "xyz": [
                    2.254466585264775,
                    6.459982987696777,
                    4.905390807282564
                ],
                "label": "O",
                "properties": {}
            },
            {
                "species": [
                    {
                        "element": "O",
                        "occu": 1
                    }
                ],
                "abc": [
                    0.70393508,
                    0.5345334,
                    0.24566599
                ],
                "xyz": [
                    6.459982987696777,
                    4.905390807282564,
                    2.254466585264775
                ],
                "label": "O",
                "properties": {}
            },
            {
                "species": [
                    {
                        "element": "O",
                        "occu": 1
                    }
                ],
                "abc": [
                    0.74566599,
                    0.79606492,
                    0.4654666
                ],
                "xyz": [
                    6.842945815264775,
                    7.305454702303223,
                    4.271567652717436
                ],
                "label": "O",
                "properties": {}
            },
            {
                "species": [
                    {
                        "element": "O",
                        "occu": 1
                    }
                ],
                "abc": [
                    0.75433401,
                    0.20393508,
                    0.9654666
                ],
                "xyz": [
                    6.922491874735225,
                    1.8715037576967766,
                    8.860046882717436
                ],
                "label": "O",
                "properties": {}
            },
            {
                "species": [
                    {
                        "element": "O",
                        "occu": 1
                    }
                ],
                "abc": [
                    0.20393508,
                    0.9654666,
                    0.75433401
                ],
                "xyz": [
                    1.8715037576967766,
                    8.860046882717436,
                    6.922491874735225
                ],
                "label": "O",
                "properties": {}
            },
            {
                "species": [
                    {
                        "element": "O",
                        "occu": 1
                    }
                ],
                "abc": [
                    0.9654666,
                    0.75433401,
                    0.20393508
                ],
                "xyz": [
                    8.860046882717436,
                    6.922491874735225,
                    1.8715037576967766
                ],
                "label": "O",
                "properties": {}
            },
            {
                "species": [
                    {
                        "element": "O",
                        "occu": 1
                    }
                ],
                "abc": [
                    0.79606492,
                    0.4654666,
                    0.74566599
                ],
                "xyz": [
                    7.305454702303223,
                    4.271567652717436,
                    6.842945815264775
                ],
                "label": "O",
                "properties": {}
            },
            {
                "species": [
                    {
                        "element": "O",
                        "occu": 1
                    }
                ],
                "abc": [
                    0.29606492,
                    0.0345334,
                    0.25433401
                ],
                "xyz": [
                    2.7169754723032233,
                    0.31691157728256397,
                    2.3340126447352247
                ],
                "label": "O",
                "properties": {}
            }
        ]
    },
    "spacegroup": {
        "source": "spglib",
        "symbol": "P2_13",
        "number": 198,
        "point_group": "23",
        "crystal_system": "cubic",
        "hall": "P 2ac 2ab 3"
    },
    "dielectric": {
        "epsilon_ionic": [
            [
                5.96030095,
                -2.5e-07,
                -2.5e-07
            ],
            [
                -2.5e-07,
                5.96029573,
                -2.5e-07
            ],
            [
                -2.5e-07,
                -2.5e-07,
                5.96014847
            ]
        ],
        "epsilon_ionic_avg": 5.960248383333332,
        "epsilon_ionic_eig": [
            5.960148469164301,
            5.9603009623166505,
            5.9602957185190455
        ],
        "epsilon_electronic": [
            [
                3.62213138,
                -0.0,
                0.0
            ],
            [
                -0.0,
                3.62213138,
                -0.0
            ],
            [
                0.0,
                0.0,
                3.62213138
            ]
        ],
        "epsilon_electronic_avg": 3.6221313800000003,
        "epsilon_electronic_eig": [
            3.62213138,
            3.62213138,
            3.62213138
        ]
    },
    "phonon": {
        "lowest_freq": -0.0342209837322038,
        "frequency": [
            -0.0342209837322038,
            -0.0342209837322038,
            -0.0342209837322038,
            0.9913569822958205,
            0.9913569822958205,
            1.1945462332635108,
            1.1945462332635108,
            1.1945462332635108,
            1.2764884780828814,
            1.3772767449507868,
            1.3772767449507868,
            1.3772767449507868,
            1.4781564684513215,
            1.4781564684513215,
            1.4781564684513215,
            1.483948351872801,
            1.483948351872801,
            1.632920500391866,
            1.632920500391866,
            1.632920500391866,
            1.6480511742464523,
            1.7302176322649678,
            1.7302176322649678,
            1.7302176322649678,
            1.7760388723544611,
            1.7760388723544611,
            2.0576593010704087,
            2.061928147161816,
            2.061928147161816,
            2.061928147161816,
            2.11196594634621,
            2.11196594634621,
            2.11196594634621,
            2.3470015180744785,
            2.3470015180744785,
            2.3470015180744785,
            2.375028846791404,
            2.375028846791404,
            2.375028846791404,
            2.7505729838012636,
            2.7505729838012636,
            2.7505729838012636,
            2.7611746884106263,
            2.7611746884106263,
            2.855314274982665,
            2.9007088566256565,
            2.9007088566256565,
            2.9007088566256565,
            3.423325592904511,
            3.423325592904511,
            3.423325592904511,
            3.690766438247539,
            3.690766438247539,
            3.7383469599616608,
            3.7874831019220156,
            3.7874831019220156,
            3.7874831019220156,
            4.266643033007399,
            4.266643033007399,
            4.266643033007399,
            6.695675683237875,
            6.695675683237875,
            6.707141584620087,
            6.707141584620087,
            6.707141584620087,
            7.064762825330128,
            7.8498737340472795,
            7.8498737340472795,
            7.8498737340472795,
            7.907203191941384,
            7.907203191941384,
            7.907203191941384,
            15.147223101298046,
            15.147223101298046,
            15.383463290513353,
            15.383463290513353,
            15.383463290513353,
            15.896497731438405,
            15.896497731438405,
            15.896497731438405,
            17.54938534014808,
            17.606845896846114,
            17.606845896846114,
            17.606845896846114
        ]
    },
    "born_effective_charge": {
        "avg_abs_trace": 1.6751192857142858,
        "tensors": [
            [
                [
                    1.27341,
                    0.03298,
                    -0.01303
                ],
                [
                    -0.01296,
                    1.27358,
                    0.03293
                ],
                [
                    0.0329,
                    -0.01303,
                    1.27357
                ]
            ],
            [
                [
                    1.27347,
                    0.03294,
                    0.01313
                ],
                [
                    -0.01303,
                    1.27363,
                    -0.03289
                ],
                [
                    -0.0329,
                    0.01303,
                    1.27357
                ]
            ],
            [
                [
                    1.27341,
                    -0.03298,
                    0.01303
                ],
                [
                    0.01303,
                    1.27363,
                    0.03289
                ],
                [
                    -0.03286,
                    -0.01314,
                    1.27361
                ]
            ],
            [
                [
                    1.27347,
                    -0.03294,
                    -0.01313
                ],
                [
                    0.01296,
                    1.27358,
                    -0.03293
                ],
                [
                    0.03286,
                    0.01314,
                    1.27361
                ]
            ],
            [
                [
                    1.24665,
                    -0.1482,
                    0.13273
                ],
                [
                    -0.13279,
                    1.24643,
                    0.14813
                ],
                [
                    0.14818,
                    0.13272,
                    1.24656
                ]
            ],
            [
                [
                    1.24667,
                    -0.14826,
                    -0.13266
                ],
                [
                    -0.13274,
                    1.24647,
                    -0.14821
                ],
                [
                    -0.14818,
                    -0.13272,
                    1.24656
                ]
            ],
            [
                [
                    1.46612,
                    -0.01234,
                    -0.07977
                ],
                [
                    0.07972,
                    1.46612,
                    -0.01279
                ],
                [
                    0.01237,
                    0.07965,
                    1.46606
                ]
            ],
            [
                [
                    1.4661,
                    -0.01272,
                    0.07985
                ],
                [
                    0.07964,
                    1.46614,
                    0.01242
                ],
                [
                    -0.01237,
                    -0.07965,
                    1.46606
                ]
            ],
            [
                [
                    1.46612,
                    0.01234,
                    0.07977
                ],
                [
                    -0.07964,
                    1.46614,
                    -0.01242
                ],
                [
                    -0.01275,
                    0.07973,
                    1.46604
                ]
            ],
            [
                [
                    1.4661,
                    0.01272,
                    -0.07985
                ],
                [
                    -0.07972,
                    1.46612,
                    0.01279
                ],
                [
                    0.01275,
                    -0.07973,
                    1.46604
                ]
            ],
            [
                [
                    1.24665,
                    0.1482,
                    -0.13273
                ],
                [
                    0.13274,
                    1.24647,
                    0.14821
                ],
                [
                    -0.1481,
                    0.13279,
                    1.24653
                ]
            ],
            [
                [
                    1.24667,
                    0.14826,
                    0.13266
                ],
                [
                    0.13279,
                    1.24643,
                    -0.14813
                ],
                [
                    0.1481,
                    -0.13279,
                    1.24653
                ]
            ],
            [
                [
                    1.87702,
                    0.33399,
                    -0.37261
                ],
                [
                    0.37279,
                    1.87642,
                    0.3333
                ],
                [
                    -0.33399,
                    0.37261,
                    1.87703
                ]
            ],
            [
                [
                    1.87642,
                    0.3333,
                    0.37278
                ],
                [
                    0.37261,
                    1.87703,
                    -0.33399
                ],
                [
                    0.33399,
                    -0.37261,
                    1.87703
                ]
            ],
            [
                [
                    1.87702,
                    -0.33399,
                    0.37261
                ],
                [
                    -0.37261,
                    1.87703,
                    0.33399
                ],
                [
                    0.3333,
                    0.37279,
                    1.87642
                ]
            ],
            [
                [
                    1.87642,
                    -0.3333,
                    -0.37278
                ],
                [
                    -0.37279,
                    1.87642,
                    -0.3333
                ],
                [
                    -0.3333,
                    -0.37279,
                    1.87642
                ]
            ],
            [
                [
                    -2.85278,
                    -0.05065,
                    -0.14214
                ],
                [
                    -0.40374,
                    -1.52966,
                    -0.05595
                ],
                [
                    -0.4374,
                    -0.01406,
                    -1.48075
                ]
            ],
            [
                [
                    -2.85278,
                    0.05065,
                    0.14214
                ],
                [
                    0.4035,
                    -1.52976,
                    -0.05588
                ],
                [
                    0.43804,
                    -0.01403,
                    -1.48032
                ]
            ],
            [
                [
                    -2.85255,
                    0.05041,
                    -0.14244
                ],
                [
                    0.40374,
                    -1.52966,
                    0.05595
                ],
                [
                    -0.43804,
                    0.01403,
                    -1.48032
                ]
            ],
            [
                [
                    -1.52977,
                    -0.05589,
                    0.4035
                ],
                [
                    -0.01403,
                    -1.48034,
                    0.43806
                ],
                [
                    0.05065,
                    0.14214,
                    -2.85277
                ]
            ],
            [
                [
                    -1.52967,
                    -0.05594,
                    -0.40374
                ],
                [
                    -0.01406,
                    -1.48076,
                    -0.43739
                ],
                [
                    -0.05065,
                    -0.14214,
                    -2.85277
                ]
            ],
            [
                [
                    -1.48076,
                    -0.4374,
                    -0.01406
                ],
                [
                    -0.14215,
                    -2.85276,
                    -0.05066
                ],
                [
                    -0.05593,
                    -0.40375,
                    -1.52966
                ]
            ],
            [
                [
                    -1.52967,
                    0.05594,
                    0.40374
                ],
                [
                    0.01403,
                    -1.48034,
                    -0.43806
                ],
                [
                    0.05041,
                    -0.14244,
                    -2.85255
                ]
            ],
            [
                [
                    -1.52977,
                    0.05589,
                    -0.4035
                ],
                [
                    0.01406,
                    -1.48076,
                    0.43739
                ],
                [
                    -0.05041,
                    0.14244,
                    -2.85255
                ]
            ],
            [
                [
                    -1.48076,
                    0.4374,
                    0.01406
                ],
                [
                    0.14243,
                    -2.85255,
                    -0.05042
                ],
                [
                    0.05588,
                    -0.4035,
                    -1.52977
                ]
            ],
            [
                [
                    -2.85255,
                    -0.05041,
                    0.14244
                ],
                [
                    -0.4035,
                    -1.52976,
                    0.05588
                ],
                [
                    0.4374,
                    0.01406,
                    -1.48075
                ]
            ],
            [
                [
                    -1.48033,
                    -0.43804,
                    0.01403
                ],
                [
                    -0.14243,
                    -2.85255,
                    0.05042
                ],
                [
                    0.05593,
                    0.40375,
                    -1.52966
                ]
            ],
            [
                [
                    -1.48033,
                    0.43804,
                    -0.01403
                ],
                [
                    0.14215,
                    -2.85276,
                    0.05066
                ],
                [
                    -0.05588,
                    0.4035,
                    -1.52977
                ]
            ]
        ]
    },
    "band_gap": 3.1285000000000003,
    "is_direct": false,
    "formula": "Cs3BiO3"
}