{
    "mp_id": "mp-27562",
    "nelements": 3,
    "nsites": 9,
    "elements": [
        "Na",
        "O",
        "Pd"
    ],
    "structure": {
        "@module": "pymatgen.core.structure",
        "@class": "Structure",
        "charge": null,
        "lattice": {
            "matrix": [
                [
                    -1.50728207,
                    2.70037338,
                    6.45916308
                ],
                [
                    1.50728207,
                    -2.70037338,
                    6.45916308
                ],
                [
                    1.50728207,
                    2.70037338,
                    -6.45916308
                ]
            ],
            "a": 7.161333906751674,
            "b": 7.161333906751674,
            "c": 7.161333906751674,
            "alpha": 155.6996150231567,
            "beta": 135.69453114872383,
            "gamma": 51.1689119865938,
            "volume": 105.16097211823934
        },
        "sites": [
            {
                "species": [
                    {
                        "element": "Na",
                        "occu": 1
                    }
                ],
                "abc": [
                    0.29834935,
                    0.79834935,
                    0.5
                ],
                "xyz": [
                    1.50728207,
                    2.220446049250313e-16,
                    3.8541742129239953
                ],
                "label": "Na",
                "properties": {}
            },
            {
                "species": [
                    {
                        "element": "Na",
                        "occu": 1
                    }
                ],
                "abc": [
                    0.70165065,
                    0.20165065,
                    0.5
                ],
                "xyz": [
                    0.0,
                    2.7003733800000003,
                    2.6049888670760044
                ],
                "label": "Na",
                "properties": {}
            },
            {
                "species": [
                    {
                        "element": "Pd",
                        "occu": 1
                    }
                ],
                "abc": [
                    0.1062781,
                    0.1062781,
                    0.0
                ],
                "xyz": [
                    0.0,
                    0.0,
                    1.372935159465096
                ],
                "label": "Pd",
                "properties": {}
            },
            {
                "species": [
                    {
                        "element": "Pd",
                        "occu": 1
                    }
                ],
                "abc": [
                    0.8937219,
                    0.8937219,
                    0.0
                ],
                "xyz": [
                    0.0,
                    0.0,
                    11.545391000534902
                ],
                "label": "Pd",
                "properties": {}
            },
            {
                "species": [
                    {
                        "element": "Pd",
                        "occu": 1
                    }
                ],
                "abc": [
                    0.5,
                    0.5,
                    0.0
                ],
                "xyz": [
                    0.0,
                    0.0,
                    6.45916308
                ],
                "label": "Pd",
                "properties": {}
            },
            {
                "species": [
                    {
                        "element": "O",
                        "occu": 1
                    }
                ],
                "abc": [
                    0.86957612,
                    0.61599278,
                    0.25358234
                ],
                "xyz": [
                    -1.5072820698236455e-06,
                    1.3695367015215982,
                    7.957602103408204
                ],
                "label": "O",
                "properties": {}
            },
            {
                "species": [
                    {
                        "element": "O",
                        "occu": 1
                    }
                ],
                "abc": [
                    0.13042388,
                    0.38400722,
                    0.74641766
                ],
                "xyz": [
                    1.5072835772820699,
                    1.3308366784784016,
                    -1.4984390234082041
                ],
                "label": "O",
                "properties": {}
            },
            {
                "species": [
                    {
                        "element": "O",
                        "occu": 1
                    }
                ],
                "abc": [
                    0.63758956,
                    0.38400722,
                    0.25358234
                ],
                "xyz": [
                    0.0,
                    1.3695340011482182,
                    4.960730515754875
                ],
                "label": "O",
                "properties": {}
            },
            {
                "species": [
                    {
                        "element": "O",
                        "occu": 1
                    }
                ],
                "abc": [
                    0.36241044,
                    0.61599278,
                    0.74641766
                ],
                "xyz": [
                    1.50728207,
                    1.3308393788517816,
                    1.4984325642451246
                ],
                "label": "O",
                "properties": {}
            }
        ]
    },
    "spacegroup": {
        "source": "spglib",
        "symbol": "Immm",
        "number": 71,
        "point_group": "mmm",
        "crystal_system": "orthorhombic",
        "hall": "-I 2 2"
    },
    "dielectric": {
        "epsilon_ionic": [
            [
                3.01403695,
                0.0,
                1e-08
            ],
            [
                0.0,
                3.24843994,
                2e-08
            ],
            [
                1e-08,
                2e-08,
                2.89882384
            ]
        ],
        "epsilon_ionic_avg": 3.0537669100000007,
        "epsilon_ionic_eig": [
            3.0140369500000017,
            2.898823839999999,
            3.2484399400000012
        ],
        "epsilon_electronic": [
            [
                7.53850254,
                0.0,
                0.0
            ],
            [
                0.0,
                8.6160563,
                0.0
            ],
            [
                0.0,
                0.0,
                4.45159439
            ]
        ],
        "epsilon_electronic_avg": 6.868717743333334,
        "epsilon_electronic_eig": [
            7.53850254,
            8.6160563,
            4.45159439
        ]
    },
    "phonon": {
        "lowest_freq": -0.011822528825424677,
        "frequency": [
            -0.011822528825424677,
            -0.007413147528334582,
            -0.006037955739971979,
            2.301065886008149,
            2.841673608402589,
            4.960384841367123,
            5.005394088307956,
            5.249884829589077,
            5.490361911532776,
            5.870908344584727,
            5.901840495195993,
            6.13474082541297,
            6.643344121008194,
            7.435401536443279,
            7.597613414924118,
            9.557602698143198,
            10.196711400318117,
            13.263805377290227,
            13.948487465085275,
            14.321577312311298,
            14.6483364603369,
            15.669111354188681,
            16.59419940049853,
            16.991180839866377,
            17.157320675905623,
            17.661497843268215,
            17.736409393270492
        ]
    },
    "born_effective_charge": {
        "avg_abs_trace": 1.414272962962963,
        "tensors": [
            [
                [
                    0.97621,
                    -0.0,
                    -2e-05
                ],
                [
                    0.0,
                    1.10935,
                    -0.0
                ],
                [
                    -0.0,
                    -0.0,
                    1.62103
                ]
            ],
            [
                [
                    0.97621,
                    -0.0,
                    2e-05
                ],
                [
                    0.0,
                    1.10935,
                    0.0
                ],
                [
                    -0.0,
                    -0.0,
                    1.62109
                ]
            ],
            [
                [
                    3.33512,
                    -0.0,
                    0.00036
                ],
                [
                    0.0,
                    1.35998,
                    0.00013
                ],
                [
                    -0.0,
                    -0.0,
                    -0.41859
                ]
            ],
            [
                [
                    3.33512,
                    -0.0,
                    -0.00036
                ],
                [
                    0.0,
                    1.35998,
                    -0.00013
                ],
                [
                    0.0,
                    0.0,
                    -0.41919
                ]
            ],
            [
                [
                    -0.44485,
                    -0.0,
                    0.0
                ],
                [
                    0.0,
                    2.52248,
                    0.0
                ],
                [
                    -0.0,
                    -0.0,
                    1.04938
                ]
            ],
            [
                [
                    -2.04445,
                    0.00015,
                    -0.00016
                ],
                [
                    0.0,
                    -1.86536,
                    -0.59599
                ],
                [
                    -0.0,
                    -0.02927,
                    -0.8634
                ]
            ],
            [
                [
                    -2.04445,
                    -0.00015,
                    0.00016
                ],
                [
                    0.0,
                    -1.86522,
                    -0.59601
                ],
                [
                    0.0,
                    -0.02889,
                    -0.86347
                ]
            ],
            [
                [
                    -2.04445,
                    0.00015,
                    0.00016
                ],
                [
                    -0.0,
                    -1.86536,
                    0.59599
                ],
                [
                    0.0,
                    0.02889,
                    -0.86347
                ]
            ],
            [
                [
                    -2.04445,
                    -0.00015,
                    -0.00016
                ],
                [
                    -0.0,
                    -1.86522,
                    0.59601
                ],
                [
                    0.0,
                    0.02927,
                    -0.8634
                ]
            ]
        ]
    },
    "band_gap": 1.0504999999999995,
    "is_direct": false,
    "formula": "Na2Pd3O4"
}