{
    "mp_id": "mp-23262",
    "nelements": 2,
    "nsites": 20,
    "elements": [
        "Bi",
        "O"
    ],
    "structure": {
        "@module": "pymatgen.core.structure",
        "@class": "Structure",
        "charge": null,
        "lattice": {
            "matrix": [
                [
                    5.85095227,
                    0.0,
                    -6.187e-05
                ],
                [
                    0.0,
                    8.06379231,
                    0.0
                ],
                [
                    -2.77123342,
                    0.0,
                    6.84366905
                ]
            ],
            "a": 5.8509522703271175,
            "b": 8.06379231,
            "c": 7.383464006416826,
            "alpha": 90.0,
            "beta": 112.04529838647002,
            "gamma": 90.0,
            "volume": 322.8888355811488
        },
        "sites": [
            {
                "species": [
                    {
                        "element": "Bi",
                        "occu": 1
                    }
                ],
                "abc": [
                    0.47949607,
                    0.68963799,
                    0.12990107
                ],
                "xyz": [
                    2.445522432744819,
                    5.561097520445857,
                    0.8889702658990327
                ],
                "label": "Bi",
                "properties": {}
            },
            {
                "species": [
                    {
                        "element": "Bi",
                        "occu": 1
                    }
                ],
                "abc": [
                    0.04013616,
                    0.45564089,
                    0.27545202
                ],
                "xyz": [
                    -0.5285070869694253,
                    3.674193504903556,
                    1.885099980809762
                ],
                "label": "Bi",
                "properties": {}
            },
            {
                "species": [
                    {
                        "element": "Bi",
                        "occu": 1
                    }
                ],
                "abc": [
                    0.52050393,
                    0.18963799,
                    0.37009893
                ],
                "xyz": [
                    2.01981312725518,
                    1.529201365445857,
                    2.532802389100967
                ],
                "label": "Bi",
                "properties": {}
            },
            {
                "species": [
                    {
                        "element": "Bi",
                        "occu": 1
                    }
                ],
                "abc": [
                    0.95986384,
                    0.95564089,
                    0.22454798
                ],
                "xyz": [
                    4.993842646969425,
                    7.706089659903556,
                    1.5366726741902383
                ],
                "label": "Bi",
                "properties": {}
            },
            {
                "species": [
                    {
                        "element": "Bi",
                        "occu": 1
                    }
                ],
                "abc": [
                    0.47949607,
                    0.81036201,
                    0.62990107
                ],
                "xyz": [
                    1.0599057227448192,
                    6.534590944554143,
                    4.310804790899033
                ],
                "label": "Bi",
                "properties": {}
            },
            {
                "species": [
                    {
                        "element": "Bi",
                        "occu": 1
                    }
                ],
                "abc": [
                    0.52050393,
                    0.31036201,
                    0.87009893
                ],
                "xyz": [
                    0.6341964172551795,
                    2.5026947895541434,
                    5.954636914100968
                ],
                "label": "Bi",
                "properties": {}
            },
            {
                "species": [
                    {
                        "element": "Bi",
                        "occu": 1
                    }
                ],
                "abc": [
                    0.95986384,
                    0.54435911,
                    0.72454798
                ],
                "xyz": [
                    3.6082259369694247,
                    4.389598805096444,
                    4.9585071991902385
                ],
                "label": "Bi",
                "properties": {}
            },
            {
                "species": [
                    {
                        "element": "Bi",
                        "occu": 1
                    }
                ],
                "abc": [
                    0.04013616,
                    0.04435911,
                    0.77545202
                ],
                "xyz": [
                    -1.9141237969694254,
                    0.3577026500964441,
                    5.306934505809762
                ],
                "label": "Bi",
                "properties": {}
            },
            {
                "species": [
                    {
                        "element": "O",
                        "occu": 1
                    }
                ],
                "abc": [
                    0.77820023,
                    0.20715031,
                    0.20752058
                ],
                "xyz": [
                    3.9781244355992387,
                    1.6704170767921163,
                    1.420154023335819
                ],
                "label": "O",
                "properties": {}
            },
            {
                "species": [
                    {
                        "element": "O",
                        "occu": 1
                    }
                ],
                "abc": [
                    0.72864707,
                    0.96603639,
                    0.48547113
                ],
                "xyz": [
                    2.917925408344184,
                    7.7899168128621605,
                    3.3223586656553055
                ],
                "label": "O",
                "properties": {}
            },
            {
                "species": [
                    {
                        "element": "O",
                        "occu": 1
                    }
                ],
                "abc": [
                    0.76327799,
                    0.94732478,
                    0.87771236
                ],
                "xyz": [
                    2.0335572630524656,
                    7.639030276036442,
                    6.006725688925216
                ],
                "label": "O",
                "properties": {}
            },
            {
                "species": [
                    {
                        "element": "O",
                        "occu": 1
                    }
                ],
                "abc": [
                    0.72864707,
                    0.53396361,
                    0.98547113
                ],
                "xyz": [
                    1.5323086983441838,
                    4.30577165213784,
                    6.744193190655305
                ],
                "label": "O",
                "properties": {}
            },
            {
                "species": [
                    {
                        "element": "O",
                        "occu": 1
                    }
                ],
                "abc": [
                    0.22179977,
                    0.70715031,
                    0.29247942
                ],
                "xyz": [
                    0.4872111244007614,
                    5.7023132317921155,
                    2.001618631664181
                ],
                "label": "O",
                "properties": {}
            },
            {
                "species": [
                    {
                        "element": "O",
                        "occu": 1
                    }
                ],
                "abc": [
                    0.27135293,
                    0.03396361,
                    0.51452887
                ],
                "xyz": [
                    0.16179344165581533,
                    0.2738754971378391,
                    3.5212485143446948
                ],
                "label": "O",
                "properties": {}
            },
            {
                "species": [
                    {
                        "element": "O",
                        "occu": 1
                    }
                ],
                "abc": [
                    0.76327799,
                    0.55267522,
                    0.37771236
                ],
                "xyz": [
                    3.419173973052465,
                    4.456658188963559,
                    2.584891163925217
                ],
                "label": "O",
                "properties": {}
            },
            {
                "species": [
                    {
                        "element": "O",
                        "occu": 1
                    }
                ],
                "abc": [
                    0.22179977,
                    0.79284969,
                    0.79247942
                ],
                "xyz": [
                    -0.8984055855992388,
                    6.393375233207885,
                    5.4234531566641815
                ],
                "label": "O",
                "properties": {}
            },
            {
                "species": [
                    {
                        "element": "O",
                        "occu": 1
                    }
                ],
                "abc": [
                    0.23672201,
                    0.44732478,
                    0.62228764
                ],
                "xyz": [
                    -0.3394551230524663,
                    3.6071341210364416,
                    4.258716016074783
                ],
                "label": "O",
                "properties": {}
            },
            {
                "species": [
                    {
                        "element": "O",
                        "occu": 1
                    }
                ],
                "abc": [
                    0.77820023,
                    0.29284969,
                    0.70752058
                ],
                "xyz": [
                    2.592507725599239,
                    2.361479078207884,
                    4.841988548335818
                ],
                "label": "O",
                "properties": {}
            },
            {
                "species": [
                    {
                        "element": "O",
                        "occu": 1
                    }
                ],
                "abc": [
                    0.23672201,
                    0.05267522,
                    0.12228764
                ],
                "xyz": [
                    1.0461615869475338,
                    0.4247620339635582,
                    0.8368814910747833
                ],
                "label": "O",
                "properties": {}
            },
            {
                "species": [
                    {
                        "element": "O",
                        "occu": 1
                    }
                ],
                "abc": [
                    0.27135293,
                    0.46603639,
                    0.01452887
                ],
                "xyz": [
                    1.5474101516558156,
                    3.7580206578621613,
                    0.09941398934469439
                ],
                "label": "O",
                "properties": {}
            }
        ]
    },
    "spacegroup": {
        "source": "spglib",
        "symbol": "P2_1/c",
        "number": 14,
        "point_group": "2/m",
        "crystal_system": "monoclinic",
        "hall": "-P 2ybc"
    },
    "dielectric": {
        "epsilon_ionic": [
            [
                24.20076864,
                -9e-08,
                0.06540075
            ],
            [
                -9e-08,
                18.26681781,
                1.8e-07
            ],
            [
                0.06540075,
                1.8e-07,
                32.14575362
            ]
        ],
        "epsilon_ionic_avg": 24.871113356666672,
        "epsilon_ionic_eig": [
            24.200230316979926,
            32.146291943020096,
            18.26681781
        ],
        "epsilon_electronic": [
            [
                7.22011417,
                0.0,
                0.26597037
            ],
            [
                0.0,
                6.55224336,
                0.0
            ],
            [
                0.26596608,
                0.0,
                7.18446504
            ]
        ],
        "epsilon_electronic_avg": 6.985607523333333,
        "epsilon_electronic_eig": [
            7.468854441057738,
            6.935724768942262,
            6.55224336
        ]
    },
    "phonon": {
        "lowest_freq": -0.02988955249526374,
        "frequency": [
            -0.02988955249526374,
            -0.01633782412781483,
            -0.01136365229513314,
            1.3134602426481838,
            1.6215062805998663,
            1.791890568736646,
            1.8020033680298886,
            1.9640467595943003,
            2.0909558782341184,
            2.110395303377986,
            2.1606595193602534,
            2.4739453540961303,
            2.83217273751165,
            2.939668698895081,
            2.982085331725596,
            3.2598592219127087,
            3.292566321332401,
            3.4126573718759103,
            3.6649640254051814,
            3.8438163101214844,
            4.3147333951085605,
            4.325044463310129,
            4.371781792182907,
            4.678618013849273,
            4.8287322776074895,
            5.001027775585119,
            5.246670402093697,
            5.632230455665956,
            5.84353784511571,
            6.022188086734276,
            6.369206964944919,
            6.828355266563083,
            6.894930006467802,
            6.945162568028049,
            8.350176685868075,
            8.350238179511228,
            8.720535950098078,
            9.206096506515326,
            9.442757639893005,
            9.475990222401224,
            9.667383628597229,
            9.853113024077949,
            10.576338080242154,
            10.8571284145235,
            11.432548114363474,
            12.103239275299792,
            12.122910902379347,
            12.207316916904219,
            12.321867520091645,
            12.88822270105689,
            13.077799950813167,
            13.175073357545815,
            13.399355501341194,
            13.7145321841414,
            13.94698683261481,
            14.655486091532334,
            15.313015414310561,
            15.591224958479202,
            15.659551023860985,
            15.732966004165261
        ]
    },
    "born_effective_charge": {
        "avg_abs_trace": 3.527287666666667,
        "tensors": [
            [
                [
                    4.30535,
                    -0.52503,
                    0.07868
                ],
                [
                    -0.97045,
                    3.78178,
                    -0.24117
                ],
                [
                    0.10687,
                    0.30919,
                    4.72258
                ]
            ],
            [
                [
                    4.57978,
                    1.22881,
                    0.11012
                ],
                [
                    1.01139,
                    4.1357,
                    0.3059
                ],
                [
                    0.20774,
                    0.00534,
                    4.92934
                ]
            ],
            [
                [
                    4.30548,
                    0.52522,
                    0.07833
                ],
                [
                    0.97045,
                    3.78178,
                    0.24117
                ],
                [
                    0.10716,
                    -0.30998,
                    4.72266
                ]
            ],
            [
                [
                    4.57934,
                    -1.22911,
                    0.10971
                ],
                [
                    -1.01139,
                    4.1357,
                    -0.3059
                ],
                [
                    0.20883,
                    -0.00482,
                    4.92992
                ]
            ],
            [
                [
                    4.30535,
                    0.52503,
                    0.07868
                ],
                [
                    0.97088,
                    3.782,
                    0.24153
                ],
                [
                    0.10687,
                    -0.30919,
                    4.72258
                ]
            ],
            [
                [
                    4.30548,
                    -0.52522,
                    0.07833
                ],
                [
                    -0.97088,
                    3.782,
                    -0.24153
                ],
                [
                    0.10716,
                    0.30998,
                    4.72266
                ]
            ],
            [
                [
                    4.57934,
                    1.22911,
                    0.10971
                ],
                [
                    1.01171,
                    4.13538,
                    0.30532
                ],
                [
                    0.20883,
                    0.00482,
                    4.92992
                ]
            ],
            [
                [
                    4.57978,
                    -1.22881,
                    0.11012
                ],
                [
                    -1.01171,
                    4.13538,
                    -0.30532
                ],
                [
                    0.20774,
                    -0.00534,
                    4.92934
                ]
            ],
            [
                [
                    -3.26036,
                    0.40024,
                    0.29333
                ],
                [
                    -0.1035,
                    -3.45841,
                    0.53004
                ],
                [
                    0.30537,
                    0.33474,
                    -2.46045
                ]
            ],
            [
                [
                    -2.8209,
                    0.04183,
                    -0.25161
                ],
                [
                    -0.16101,
                    -2.4561,
                    0.25999
                ],
                [
                    -0.26281,
                    0.61928,
                    -3.39877
                ]
            ],
            [
                [
                    -2.8035,
                    -0.82824,
                    -0.23015
                ],
                [
                    -0.9247,
                    -2.00319,
                    -0.46703
                ],
                [
                    -0.35837,
                    -0.53626,
                    -3.79329
                ]
            ],
            [
                [
                    -2.8209,
                    -0.04183,
                    -0.25161
                ],
                [
                    0.1606,
                    -2.45625,
                    -0.26054
                ],
                [
                    -0.26281,
                    -0.61928,
                    -3.39877
                ]
            ],
            [
                [
                    -3.26024,
                    -0.40006,
                    0.29297
                ],
                [
                    0.1035,
                    -3.45841,
                    -0.53004
                ],
                [
                    0.30577,
                    -0.33526,
                    -2.46074
                ]
            ],
            [
                [
                    -2.82107,
                    0.0419,
                    -0.25213
                ],
                [
                    -0.1606,
                    -2.45625,
                    0.26054
                ],
                [
                    -0.26264,
                    0.61897,
                    -3.39726
                ]
            ],
            [
                [
                    -2.8035,
                    0.82824,
                    -0.23015
                ],
                [
                    0.92436,
                    -2.00289,
                    0.46728
                ],
                [
                    -0.35837,
                    0.53626,
                    -3.79329
                ]
            ],
            [
                [
                    -3.26024,
                    0.40006,
                    0.29297
                ],
                [
                    -0.10438,
                    -3.45802,
                    0.52966
                ],
                [
                    0.30577,
                    0.33526,
                    -2.46074
                ]
            ],
            [
                [
                    -2.8039,
                    0.82827,
                    -0.22925
                ],
                [
                    0.9247,
                    -2.00319,
                    0.46703
                ],
                [
                    -0.35791,
                    0.53607,
                    -3.79398
                ]
            ],
            [
                [
                    -3.26036,
                    -0.40024,
                    0.29333
                ],
                [
                    0.10438,
                    -3.45802,
                    -0.52966
                ],
                [
                    0.30537,
                    -0.33474,
                    -2.46045
                ]
            ],
            [
                [
                    -2.8039,
                    -0.82827,
                    -0.22925
                ],
                [
                    -0.92436,
                    -2.00289,
                    -0.46728
                ],
                [
                    -0.35791,
                    -0.53607,
                    -3.79398
                ]
            ],
            [
                [
                    -2.82107,
                    -0.0419,
                    -0.25213
                ],
                [
                    0.16101,
                    -2.4561,
                    -0.25999
                ],
                [
                    -0.26264,
                    -0.61897,
                    -3.39726
                ]
            ]
        ]
    },
    "band_gap": 2.1519000000000004,
    "is_direct": false,
    "formula": "Bi2O3"
}