{
    "mp_id": "mp-23582",
    "nelements": 4,
    "nsites": 14,
    "elements": [
        "Bi",
        "K",
        "Li",
        "O"
    ],
    "structure": {
        "@module": "pymatgen.core.structure",
        "@class": "Structure",
        "charge": null,
        "lattice": {
            "matrix": [
                [
                    4.22425277,
                    2.43887379,
                    2.43974553
                ],
                [
                    -4.22425277,
                    2.43887379,
                    2.43974553
                ],
                [
                    0.0,
                    -4.87774758,
                    2.43974553
                ]
            ],
            "a": 5.453877068614273,
            "b": 5.453877068614273,
            "c": 5.4538774926973606,
            "alpha": 101.52692687583543,
            "beta": 101.52692687583543,
            "gamma": 101.52691869060298,
            "volume": 150.8116895356749
        },
        "sites": [
            {
                "species": [
                    {
                        "element": "K",
                        "occu": 1
                    }
                ],
                "abc": [
                    0.5,
                    0.5,
                    0.5
                ],
                "xyz": [
                    0.0,
                    0.0,
                    3.6596182950000005
                ],
                "label": "K",
                "properties": {}
            },
            {
                "species": [
                    {
                        "element": "Li",
                        "occu": 1
                    }
                ],
                "abc": [
                    0.34411101,
                    0.0,
                    0.65588899
                ],
                "xyz": [
                    1.4536118871799975,
                    -2.3600176105817168,
                    2.43974553
                ],
                "label": "Li",
                "properties": {}
            },
            {
                "species": [
                    {
                        "element": "Li",
                        "occu": 1
                    }
                ],
                "abc": [
                    0.0,
                    0.65588899,
                    0.34411101
                ],
                "xyz": [
                    -2.770640882820002,
                    -0.0788561794182836,
                    2.43974553
                ],
                "label": "Li",
                "properties": {}
            },
            {
                "species": [
                    {
                        "element": "Li",
                        "occu": 1
                    }
                ],
                "abc": [
                    0.34411101,
                    0.65588899,
                    0.0
                ],
                "xyz": [
                    -1.3170289956400048,
                    2.43887379,
                    2.43974553
                ],
                "label": "Li",
                "properties": {}
            },
            {
                "species": [
                    {
                        "element": "Li",
                        "occu": 1
                    }
                ],
                "abc": [
                    0.0,
                    0.34411101,
                    0.65588899
                ],
                "xyz": [
                    -1.4536118871799975,
                    -2.3600176105817168,
                    2.43974553
                ],
                "label": "Li",
                "properties": {}
            },
            {
                "species": [
                    {
                        "element": "Li",
                        "occu": 1
                    }
                ],
                "abc": [
                    0.65588899,
                    0.0,
                    0.34411101
                ],
                "xyz": [
                    2.770640882820002,
                    -0.0788561794182836,
                    2.43974553
                ],
                "label": "Li",
                "properties": {}
            },
            {
                "species": [
                    {
                        "element": "Li",
                        "occu": 1
                    }
                ],
                "abc": [
                    0.65588899,
                    0.34411101,
                    0.0
                ],
                "xyz": [
                    1.3170289956400048,
                    2.43887379,
                    2.43974553
                ],
                "label": "Li",
                "properties": {}
            },
            {
                "species": [
                    {
                        "element": "Bi",
                        "occu": 1
                    }
                ],
                "abc": [
                    0.0,
                    0.0,
                    0.0
                ],
                "xyz": [
                    0.0,
                    0.0,
                    0.0
                ],
                "label": "Bi",
                "properties": {}
            },
            {
                "species": [
                    {
                        "element": "O",
                        "occu": 1
                    }
                ],
                "abc": [
                    0.90795903,
                    0.28056305,
                    0.28056305
                ],
                "xyz": [
                    2.6502792064018648,
                    1.5301396115733645,
                    3.584193879106969
                ],
                "label": "O",
                "properties": {}
            },
            {
                "species": [
                    {
                        "element": "O",
                        "occu": 1
                    }
                ],
                "abc": [
                    0.28056305,
                    0.90795903,
                    0.28056305
                ],
                "xyz": [
                    -2.6502792064018648,
                    1.5301396115733645,
                    3.584193879106969
                ],
                "label": "O",
                "properties": {}
            },
            {
                "species": [
                    {
                        "element": "O",
                        "occu": 1
                    }
                ],
                "abc": [
                    0.71943695,
                    0.71943695,
                    0.09204097
                ],
                "xyz": [
                    0.0,
                    3.060279223146728,
                    3.735042710893031
                ],
                "label": "O",
                "properties": {}
            },
            {
                "species": [
                    {
                        "element": "O",
                        "occu": 1
                    }
                ],
                "abc": [
                    0.09204097,
                    0.71943695,
                    0.71943695
                ],
                "xyz": [
                    -2.6502792064018643,
                    -1.530139611573364,
                    3.735042710893031
                ],
                "label": "O",
                "properties": {}
            },
            {
                "species": [
                    {
                        "element": "O",
                        "occu": 1
                    }
                ],
                "abc": [
                    0.71943695,
                    0.09204097,
                    0.71943695
                ],
                "xyz": [
                    2.6502792064018643,
                    -1.530139611573364,
                    3.735042710893031
                ],
                "label": "O",
                "properties": {}
            },
            {
                "species": [
                    {
                        "element": "O",
                        "occu": 1
                    }
                ],
                "abc": [
                    0.28056305,
                    0.28056305,
                    0.90795903
                ],
                "xyz": [
                    0.0,
                    -3.060279223146729,
                    3.5841938791069694
                ],
                "label": "O",
                "properties": {}
            }
        ]
    },
    "spacegroup": {
        "source": "spglib",
        "symbol": "R-3m",
        "number": 166,
        "point_group": "-3m",
        "crystal_system": "trigonal",
        "hall": "-R 3 2\""
    },
    "dielectric": {
        "epsilon_ionic": [
            [
                6.38579158,
                -1e-08,
                -1e-08
            ],
            [
                -1e-08,
                6.38576825,
                6.034e-05
            ],
            [
                -1e-08,
                6.034e-05,
                6.63219989
            ]
        ],
        "epsilon_ionic_avg": 6.4679199066666655,
        "epsilon_ionic_eig": [
            6.632199904774546,
            6.385791580004279,
            6.385768235221173
        ],
        "epsilon_electronic": [
            [
                3.73721738,
                0.0,
                0.0
            ],
            [
                0.0,
                3.73721757,
                5.2e-07
            ],
            [
                0.0,
                5.2e-07,
                3.80278892
            ]
        ],
        "epsilon_electronic_avg": 3.7590746233333334,
        "epsilon_electronic_eig": [
            3.8027889200041236,
            3.737217569995876,
            3.73721738
        ]
    },
    "phonon": {
        "lowest_freq": -0.03922689493344777,
        "frequency": [
            -0.03922689493344777,
            -0.036857326563611896,
            -0.03685732566842982,
            2.5468568355731627,
            3.032602829023773,
            3.0326028934964766,
            4.501943540063532,
            6.220527817488517,
            6.95630738930141,
            6.956307494702213,
            8.408630435522237,
            8.408630682578057,
            8.979431800749358,
            9.256660782554478,
            9.256661535029224,
            10.689086099479184,
            10.761047259747475,
            10.761047373305257,
            10.85136737705448,
            10.914720595824557,
            10.914721133227502,
            11.605313892002895,
            11.905846445973536,
            12.933585876744406,
            12.933586396399475,
            13.57739287786898,
            13.629242270110465,
            14.650002087463232,
            14.650002587941238,
            14.669520856388399,
            14.823229141767003,
            14.823229248936693,
            15.485457335461893,
            15.48545820350257,
            15.628631822725076,
            15.773079574129579,
            15.773079806551022,
            16.769865353280263,
            16.769865936230985,
            17.08725801472203,
            17.087258658359858,
            17.362651924270097
        ]
    },
    "born_effective_charge": {
        "avg_abs_trace": 1.5952680952380953,
        "tensors": [
            [
                [
                    1.28908,
                    0.0,
                    -0.0
                ],
                [
                    0.0,
                    1.28908,
                    3e-05
                ],
                [
                    -0.0,
                    0.0,
                    1.30812
                ]
            ],
            [
                [
                    0.86462,
                    0.16781,
                    0.2688
                ],
                [
                    0.16787,
                    1.05848,
                    -0.15527
                ],
                [
                    0.08085,
                    -0.0467,
                    0.98534
                ]
            ],
            [
                [
                    0.86462,
                    -0.16781,
                    -0.2688
                ],
                [
                    -0.16778,
                    1.05835,
                    -0.1551
                ],
                [
                    -0.08086,
                    -0.04667,
                    0.98534
                ]
            ],
            [
                [
                    1.15536,
                    0.0,
                    -0.0
                ],
                [
                    -0.00013,
                    0.76773,
                    0.31036
                ],
                [
                    -1e-05,
                    0.09337,
                    0.98534
                ]
            ],
            [
                [
                    0.86463,
                    -0.16784,
                    -0.26876
                ],
                [
                    -0.16787,
                    1.05848,
                    -0.15527
                ],
                [
                    -0.08085,
                    -0.0467,
                    0.98534
                ]
            ],
            [
                [
                    0.86463,
                    0.16784,
                    0.26876
                ],
                [
                    0.16778,
                    1.05835,
                    -0.1551
                ],
                [
                    0.08086,
                    -0.04667,
                    0.98534
                ]
            ],
            [
                [
                    1.15525,
                    0.0,
                    -0.0
                ],
                [
                    0.00013,
                    0.76773,
                    0.31036
                ],
                [
                    1e-05,
                    0.09337,
                    0.98534
                ]
            ],
            [
                [
                    4.14824,
                    0.0,
                    -0.0
                ],
                [
                    0.0,
                    4.14822,
                    0.0
                ],
                [
                    -0.0,
                    0.0,
                    3.86761
                ]
            ],
            [
                [
                    -1.98328,
                    -0.20024,
                    0.39427
                ],
                [
                    -0.20027,
                    -1.75201,
                    0.22781
                ],
                [
                    0.42964,
                    0.24805,
                    -1.84803
                ]
            ],
            [
                [
                    -1.98344,
                    0.20027,
                    -0.39424
                ],
                [
                    0.20027,
                    -1.75201,
                    0.22781
                ],
                [
                    -0.42964,
                    0.24805,
                    -1.84803
                ]
            ],
            [
                [
                    -1.6365,
                    1e-05,
                    -0.00022
                ],
                [
                    0.0,
                    -2.09885,
                    -0.45508
                ],
                [
                    -0.0,
                    -0.49612,
                    -1.8479
                ]
            ],
            [
                [
                    -1.98344,
                    -0.20027,
                    0.39424
                ],
                [
                    -0.20026,
                    -1.75221,
                    0.22742
                ],
                [
                    0.42965,
                    0.24806,
                    -1.8479
                ]
            ],
            [
                [
                    -1.98328,
                    0.20024,
                    -0.39427
                ],
                [
                    0.20026,
                    -1.75221,
                    0.22742
                ],
                [
                    -0.42965,
                    0.24806,
                    -1.8479
                ]
            ],
            [
                [
                    -1.6365,
                    -1e-05,
                    0.00022
                ],
                [
                    0.0,
                    -2.09912,
                    -0.45541
                ],
                [
                    -0.0,
                    -0.4961,
                    -1.84803
                ]
            ]
        ]
    },
    "band_gap": 1.6237999999999997,
    "is_direct": true,
    "formula": "KLi6BiO6"
}