{
    "mp_id": "mp-22373",
    "nelements": 3,
    "nsites": 16,
    "elements": [
        "Cr",
        "O",
        "Pb"
    ],
    "structure": {
        "@module": "pymatgen.core.structure",
        "@class": "Structure",
        "charge": null,
        "lattice": {
            "matrix": [
                [
                    6.91736025,
                    -2.81848404,
                    -0.00051293
                ],
                [
                    6.91736025,
                    2.81848404,
                    -0.00051293
                ],
                [
                    -2.87159741,
                    0.0,
                    6.48153866
                ]
            ],
            "a": 7.469519755319746,
            "b": 7.469519755319746,
            "c": 7.089175910230561,
            "alpha": 112.03589308009659,
            "beta": 112.03589308009659,
            "gamma": 44.33695708141322,
            "volume": 252.72593827237733
        },
        "sites": [
            {
                "species": [
                    {
                        "element": "Cr",
                        "occu": 1
                    }
                ],
                "abc": [
                    0.17046042,
                    0.17046042,
                    0.66166009
                ],
                "xyz": [
                    0.45825086626824274,
                    0.0,
                    4.2884005845876185
                ],
                "label": "Cr",
                "properties": {}
            },
            {
                "species": [
                    {
                        "element": "Cr",
                        "occu": 1
                    }
                ],
                "abc": [
                    0.82953958,
                    0.82953958,
                    0.33833991
                ],
                "xyz": [
                    10.504872223731757,
                    0.0,
                    2.192112215412382
                ],
                "label": "Cr",
                "properties": {}
            },
            {
                "species": [
                    {
                        "element": "Pb",
                        "occu": 1
                    }
                ],
                "abc": [
                    0.51772749,
                    0.51772749,
                    0.26711086
                ],
                "xyz": [
                    6.395580265557671,
                    0.0,
                    1.7307582496729563
                ],
                "label": "Pb",
                "properties": {}
            },
            {
                "species": [
                    {
                        "element": "Pb",
                        "occu": 1
                    }
                ],
                "abc": [
                    0.48227251,
                    0.48227251,
                    0.73288914
                ],
                "xyz": [
                    4.567542824442327,
                    0.0,
                    4.749754550327044
                ],
                "label": "Pb",
                "properties": {}
            },
            {
                "species": [
                    {
                        "element": "Pb",
                        "occu": 1
                    }
                ],
                "abc": [
                    0.14401614,
                    0.14401614,
                    0.109367
                ],
                "xyz": [
                    1.6783650504493997,
                    0.0,
                    0.7087186982308397
                ],
                "label": "Pb",
                "properties": {}
            },
            {
                "species": [
                    {
                        "element": "Pb",
                        "occu": 1
                    }
                ],
                "abc": [
                    0.85598386,
                    0.85598386,
                    0.890633
                ],
                "xyz": [
                    9.2847580395506,
                    0.0,
                    5.771794101769161
                ],
                "label": "Pb",
                "properties": {}
            },
            {
                "species": [
                    {
                        "element": "O",
                        "occu": 1
                    }
                ],
                "abc": [
                    0.25168012,
                    0.74831988,
                    0.0
                ],
                "xyz": [
                    6.917360250000001,
                    1.3997712371894306,
                    -0.00051293
                ],
                "label": "O",
                "properties": {}
            },
            {
                "species": [
                    {
                        "element": "O",
                        "occu": 1
                    }
                ],
                "abc": [
                    0.74831988,
                    0.25168012,
                    0.0
                ],
                "xyz": [
                    6.917360250000001,
                    -1.3997712371894306,
                    -0.00051293
                ],
                "label": "O",
                "properties": {}
            },
            {
                "species": [
                    {
                        "element": "O",
                        "occu": 1
                    }
                ],
                "abc": [
                    0.08945129,
                    0.61671669,
                    0.22417532
                ],
                "xyz": [
                    4.241077046376874,
                    1.486089114744216,
                    1.4526387884558898
                ],
                "label": "O",
                "properties": {}
            },
            {
                "species": [
                    {
                        "element": "O",
                        "occu": 1
                    }
                ],
                "abc": [
                    0.38328331,
                    0.91054871,
                    0.77582468
                ],
                "xyz": [
                    6.722046043623127,
                    1.486089114744216,
                    5.02787401154411
                ],
                "label": "O",
                "properties": {}
            },
            {
                "species": [
                    {
                        "element": "O",
                        "occu": 1
                    }
                ],
                "abc": [
                    0.91054871,
                    0.38328331,
                    0.77582468
                ],
                "xyz": [
                    6.722046043623127,
                    -1.486089114744216,
                    5.02787401154411
                ],
                "label": "O",
                "properties": {}
            },
            {
                "species": [
                    {
                        "element": "O",
                        "occu": 1
                    }
                ],
                "abc": [
                    0.61671669,
                    0.08945129,
                    0.22417532
                ],
                "xyz": [
                    4.241077046376874,
                    -1.486089114744216,
                    1.4526387884558898
                ],
                "label": "O",
                "properties": {}
            },
            {
                "species": [
                    {
                        "element": "O",
                        "occu": 1
                    }
                ],
                "abc": [
                    0.90451258,
                    0.90451258,
                    0.59047641
                ],
                "xyz": [
                    10.818068203411793,
                    0.0,
                    3.8262677759576915
                ],
                "label": "O",
                "properties": {}
            },
            {
                "species": [
                    {
                        "element": "O",
                        "occu": 1
                    }
                ],
                "abc": [
                    0.09548742,
                    0.09548742,
                    0.40952359
                ],
                "xyz": [
                    0.1450548865882082,
                    0.0,
                    2.654245024042308
                ],
                "label": "O",
                "properties": {}
            },
            {
                "species": [
                    {
                        "element": "O",
                        "occu": 1
                    }
                ],
                "abc": [
                    0.70274325,
                    0.70274325,
                    0.29700065
                ],
                "xyz": [
                    8.869390149703309,
                    0.0,
                    1.924300278829684
                ],
                "label": "O",
                "properties": {}
            },
            {
                "species": [
                    {
                        "element": "O",
                        "occu": 1
                    }
                ],
                "abc": [
                    0.29725675,
                    0.29725675,
                    0.70299935
                ],
                "xyz": [
                    2.093732940296691,
                    0.0,
                    4.556212521170316
                ],
                "label": "O",
                "properties": {}
            }
        ]
    },
    "spacegroup": {
        "source": "spglib",
        "symbol": "C2/m",
        "number": 12,
        "point_group": "2/m",
        "crystal_system": "monoclinic",
        "hall": "-C 2y"
    },
    "dielectric": {
        "epsilon_ionic": [
            [
                13.46345315,
                4e-07,
                -3.64684109
            ],
            [
                4e-07,
                59.27858619,
                5e-08
            ],
            [
                -3.64684109,
                5e-08,
                12.04619442
            ]
        ],
        "epsilon_ionic_avg": 28.262744586666667,
        "epsilon_ionic_eig": [
            9.039772572344557,
            16.46987499765545,
            59.27858619
        ],
        "epsilon_electronic": [
            [
                5.65866997,
                0.0,
                -0.37063879
            ],
            [
                0.0,
                5.15379922,
                0.0
            ],
            [
                -0.37063674,
                0.0,
                5.83834576
            ]
        ],
        "epsilon_electronic_avg": 5.55027165,
        "epsilon_electronic_eig": [
            5.367137703318235,
            6.129878026681765,
            5.15379922
        ]
    },
    "phonon": {
        "lowest_freq": -0.05682845566413103,
        "frequency": [
            -0.05682845566413103,
            -0.038027355909290586,
            -0.027969768190612428,
            0.6481475342953242,
            0.9086123539242096,
            1.2309207054128255,
            1.2699993235874076,
            1.9887768348205126,
            2.1214850937294507,
            2.178815083261562,
            2.182629645247776,
            2.5153013760915774,
            2.663836016056519,
            2.689539059406191,
            2.768075614212508,
            2.829900570879857,
            2.938667239484233,
            3.2183805466032807,
            3.3318368113251617,
            3.64884114345148,
            3.853302746432028,
            3.865422324890871,
            3.981398626629912,
            4.6040487462984006,
            9.317141655559132,
            9.323769649267065,
            9.658528047939816,
            9.666085304143136,
            9.856323375462042,
            10.155380284354004,
            10.227091811645916,
            10.535161597798405,
            10.63420277786578,
            10.841214509462018,
            11.150627761738052,
            11.217721749886227,
            11.220420089783993,
            12.027757513705403,
            12.64023616041146,
            15.257518406103964,
            25.375623544208416,
            25.44043356132841,
            26.036116245734338,
            26.233600151335533,
            26.340165897823457,
            26.404728530247134,
            26.5618251938095,
            26.864375373169302
        ]
    },
    "born_effective_charge": {
        "avg_abs_trace": 2.433138958333333,
        "tensors": [
            [
                [
                    3.03192,
                    0.0,
                    -0.67135
                ],
                [
                    -9e-05,
                    2.40141,
                    0.00036
                ],
                [
                    0.68623,
                    -0.0,
                    3.56805
                ]
            ],
            [
                [
                    3.03198,
                    0.0,
                    -0.67107
                ],
                [
                    9e-05,
                    2.40141,
                    -0.00036
                ],
                [
                    0.68825,
                    -0.0,
                    3.56911
                ]
            ],
            [
                [
                    3.61052,
                    0.0,
                    -0.38823
                ],
                [
                    0.00042,
                    3.6413,
                    -0.00016
                ],
                [
                    -0.63042,
                    -0.0,
                    3.34996
                ]
            ],
            [
                [
                    3.61058,
                    0.0,
                    -0.38795
                ],
                [
                    -0.00042,
                    3.6413,
                    0.00016
                ],
                [
                    -0.62997,
                    -0.0,
                    3.3487
                ]
            ],
            [
                [
                    3.52402,
                    0.0,
                    -0.05343
                ],
                [
                    -0.00028,
                    2.7544,
                    9e-05
                ],
                [
                    -0.3046,
                    -0.0,
                    3.3162
                ]
            ],
            [
                [
                    3.52421,
                    0.0,
                    -0.05356
                ],
                [
                    0.00028,
                    2.7544,
                    -9e-05
                ],
                [
                    -0.30541,
                    -0.0,
                    3.31587
                ]
            ],
            [
                [
                    -2.34206,
                    0.00041,
                    -0.0083
                ],
                [
                    -0.0,
                    -3.06388,
                    0.0
                ],
                [
                    -0.12378,
                    -0.00094,
                    -3.00475
                ]
            ],
            [
                [
                    -2.34206,
                    -0.00041,
                    -0.0083
                ],
                [
                    -0.0,
                    -3.06383,
                    0.0
                ],
                [
                    -0.12378,
                    0.00094,
                    -3.00475
                ]
            ],
            [
                [
                    -1.57167,
                    1.26332,
                    0.72846
                ],
                [
                    1.0327,
                    -2.19084,
                    -0.70686
                ],
                [
                    0.58533,
                    -0.88474,
                    -1.21476
                ]
            ],
            [
                [
                    -1.57225,
                    -1.26403,
                    0.72875
                ],
                [
                    -1.0327,
                    -2.19084,
                    0.70686
                ],
                [
                    0.58588,
                    0.88565,
                    -1.21491
                ]
            ],
            [
                [
                    -1.57225,
                    1.26403,
                    0.72875
                ],
                [
                    1.03274,
                    -2.18967,
                    -0.70684
                ],
                [
                    0.58588,
                    -0.88565,
                    -1.21491
                ]
            ],
            [
                [
                    -1.57167,
                    -1.26332,
                    0.72846
                ],
                [
                    -1.03274,
                    -2.18967,
                    0.70684
                ],
                [
                    0.58533,
                    0.88474,
                    -1.21476
                ]
            ],
            [
                [
                    -0.69451,
                    0.0,
                    0.11173
                ],
                [
                    -0.00021,
                    -0.74068,
                    -0.00051
                ],
                [
                    -0.08302,
                    -0.0,
                    -4.24589
                ]
            ],
            [
                [
                    -0.69416,
                    0.0,
                    0.113
                ],
                [
                    0.00021,
                    -0.74068,
                    0.00051
                ],
                [
                    -0.08212,
                    -0.0,
                    -4.2446
                ]
            ],
            [
                [
                    -3.98641,
                    0.0,
                    -0.44838
                ],
                [
                    0.00033,
                    -0.61206,
                    9e-05
                ],
                [
                    -0.71704,
                    -0.0,
                    -0.55459
                ]
            ],
            [
                [
                    -3.98619,
                    0.0,
                    -0.44858
                ],
                [
                    -0.00033,
                    -0.61206,
                    -9e-05
                ],
                [
                    -0.71677,
                    -0.0,
                    -0.55397
                ]
            ]
        ]
    },
    "band_gap": 1.5332,
    "is_direct": false,
    "formula": "CrPb2O5"
}