{
    "mp_id": "mp-27614",
    "nelements": 3,
    "nsites": 22,
    "elements": [
        "Ca",
        "O",
        "V"
    ],
    "structure": {
        "@module": "pymatgen.core.structure",
        "@class": "Structure",
        "charge": null,
        "lattice": {
            "matrix": [
                [
                    6.65471767,
                    -0.00264788,
                    -0.00035246
                ],
                [
                    0.88181798,
                    6.8702054,
                    -0.00056663
                ],
                [
                    3.08490437,
                    0.13957707,
                    6.29121022
                ]
            ],
            "a": 6.65471820612314,
            "b": 6.9265666465508,
            "c": 7.008241060547742,
            "alpha": 85.6574037321122,
            "beta": 63.88802218502112,
            "gamma": 82.70864931380974,
            "volume": 287.6522316445436
        },
        "sites": [
            {
                "species": [
                    {
                        "element": "Ca",
                        "occu": 1
                    }
                ],
                "abc": [
                    0.26341644,
                    0.55236724,
                    0.26212012
                ],
                "xyz": [
                    3.048664905284394,
                    3.8307648582455975,
                    1.6486469462039828
                ],
                "label": "Ca",
                "properties": {}
            },
            {
                "species": [
                    {
                        "element": "Ca",
                        "occu": 1
                    }
                ],
                "abc": [
                    0.73658356,
                    0.44763276,
                    0.73787988
                ],
                "xyz": [
                    7.572775114715606,
                    3.1763697317544026,
                    4.641644183796018
                ],
                "label": "Ca",
                "properties": {}
            },
            {
                "species": [
                    {
                        "element": "Ca",
                        "occu": 1
                    }
                ],
                "abc": [
                    0.74314059,
                    0.84090709,
                    0.33134121
                ],
                "xyz": [
                    6.7090737537287914,
                    5.821484318772891,
                    2.0837987961424083
                ],
                "label": "Ca",
                "properties": {}
            },
            {
                "species": [
                    {
                        "element": "Ca",
                        "occu": 1
                    }
                ],
                "abc": [
                    0.25685941,
                    0.15909291,
                    0.66865879
                ],
                "xyz": [
                    3.9123662662712086,
                    1.1856502712271084,
                    4.206492333857592
                ],
                "label": "Ca",
                "properties": {}
            },
            {
                "species": [
                    {
                        "element": "V",
                        "occu": 1
                    }
                ],
                "abc": [
                    0.72653757,
                    0.94755772,
                    0.84710414
                ],
                "xyz": [
                    8.283711102912758,
                    6.626228694300906,
                    5.328517232909505
                ],
                "label": "V",
                "properties": {}
            },
            {
                "species": [
                    {
                        "element": "V",
                        "occu": 1
                    }
                ],
                "abc": [
                    0.27346243,
                    0.05244228,
                    0.15289586
                ],
                "xyz": [
                    2.3377289170872406,
                    0.38090589569909383,
                    0.961773897090495
                ],
                "label": "V",
                "properties": {}
            },
            {
                "species": [
                    {
                        "element": "V",
                        "occu": 1
                    }
                ],
                "abc": [
                    0.19828709,
                    0.66595651,
                    0.76679979
                ],
                "xyz": [
                    4.272301049058012,
                    4.681760638712101,
                    4.823651436336851
                ],
                "label": "V",
                "properties": {}
            },
            {
                "species": [
                    {
                        "element": "V",
                        "occu": 1
                    }
                ],
                "abc": [
                    0.80171291,
                    0.33404349,
                    0.23320021
                ],
                "xyz": [
                    6.349138970941987,
                    2.3253739512879,
                    1.466639693663149
                ],
                "label": "V",
                "properties": {}
            },
            {
                "species": [
                    {
                        "element": "O",
                        "occu": 1
                    }
                ],
                "abc": [
                    0.75426606,
                    0.78406,
                    0.6703183
                ],
                "xyz": [
                    7.778693735723051,
                    5.478217104190428,
                    4.2164032190797185
                ],
                "label": "O",
                "properties": {}
            },
            {
                "species": [
                    {
                        "element": "O",
                        "occu": 1
                    }
                ],
                "abc": [
                    0.24573394,
                    0.21594,
                    0.3296817
                ],
                "xyz": [
                    2.8427462842769486,
                    1.5289174858095718,
                    2.0738879109202815
                ],
                "label": "O",
                "properties": {}
            },
            {
                "species": [
                    {
                        "element": "O",
                        "occu": 1
                    }
                ],
                "abc": [
                    0.36087499,
                    0.82179455,
                    0.57835861
                ],
                "xyz": [
                    4.9103753860862085,
                    5.725667401625121,
                    3.637982750612152
                ],
                "label": "O",
                "properties": {}
            },
            {
                "species": [
                    {
                        "element": "O",
                        "occu": 1
                    }
                ],
                "abc": [
                    0.63912501,
                    0.17820545,
                    0.42164139
                ],
                "xyz": [
                    5.711064633913792,
                    1.2814671883748785,
                    2.652308379387848
                ],
                "label": "O",
                "properties": {}
            },
            {
                "species": [
                    {
                        "element": "O",
                        "occu": 1
                    }
                ],
                "abc": [
                    0.34699891,
                    0.5508025,
                    0.89737391
                ],
                "xyz": [
                    5.563200022259677,
                    3.9084603194119327,
                    5.645133509296966
                ],
                "label": "O",
                "properties": {}
            },
            {
                "species": [
                    {
                        "element": "O",
                        "occu": 1
                    }
                ],
                "abc": [
                    0.65300109,
                    0.4491975,
                    0.10262609
                ],
                "xyz": [
                    5.058239997740324,
                    3.098674270588067,
                    0.6451576207030334
                ],
                "label": "O",
                "properties": {}
            },
            {
                "species": [
                    {
                        "element": "O",
                        "occu": 1
                    }
                ],
                "abc": [
                    0.89085064,
                    0.1322193,
                    0.73763466
                ],
                "xyz": [
                    8.320485237479287,
                    1.0089717678248231,
                    4.640225802979692
                ],
                "label": "O",
                "properties": {}
            },
            {
                "species": [
                    {
                        "element": "O",
                        "occu": 1
                    }
                ],
                "abc": [
                    0.10914936,
                    0.8677807,
                    0.26236534
                ],
                "xyz": [
                    2.300954782520713,
                    5.998162822175177,
                    1.650065327020308
                ],
                "label": "O",
                "properties": {}
            },
            {
                "species": [
                    {
                        "element": "O",
                        "occu": 1
                    }
                ],
                "abc": [
                    0.05026781,
                    0.19990801,
                    0.06020226
                ],
                "xyz": [
                    0.6965187759610988,
                    1.3816788417346895,
                    0.3786140821110783
                ],
                "label": "O",
                "properties": {}
            },
            {
                "species": [
                    {
                        "element": "O",
                        "occu": 1
                    }
                ],
                "abc": [
                    0.94973219,
                    0.80009199,
                    0.93979774
                ],
                "xyz": [
                    9.9249212440389,
                    5.62545574826531,
                    5.911677047888922
                ],
                "label": "O",
                "properties": {}
            },
            {
                "species": [
                    {
                        "element": "O",
                        "occu": 1
                    }
                ],
                "abc": [
                    0.46380042,
                    0.09760136,
                    0.86703543
                ],
                "xyz": [
                    5.847248871399703,
                    0.7903315675688244,
                    5.454483383363445
                ],
                "label": "O",
                "properties": {}
            },
            {
                "species": [
                    {
                        "element": "O",
                        "occu": 1
                    }
                ],
                "abc": [
                    0.13659609,
                    0.49250985,
                    0.63726841
                ],
                "xyz": [
                    3.3092245577049653,
                    3.4722301984397594,
                    4.008862318360964
                ],
                "label": "O",
                "properties": {}
            },
            {
                "species": [
                    {
                        "element": "O",
                        "occu": 1
                    }
                ],
                "abc": [
                    0.86340391,
                    0.50749015,
                    0.36273159
                ],
                "xyz": [
                    7.312215462295035,
                    3.5349043915602403,
                    2.2814288116390364
                ],
                "label": "O",
                "properties": {}
            },
            {
                "species": [
                    {
                        "element": "O",
                        "occu": 1
                    }
                ],
                "abc": [
                    0.53619958,
                    0.90239864,
                    0.13296457
                ],
                "xyz": [
                    4.774191148600297,
                    6.216803022431176,
                    0.8358077466365554
                ],
                "label": "O",
                "properties": {}
            }
        ]
    },
    "spacegroup": {
        "source": "spglib",
        "symbol": "P-1",
        "number": 2,
        "point_group": "-1",
        "crystal_system": "triclinic",
        "hall": "-P 1"
    },
    "dielectric": {
        "epsilon_ionic": [
            [
                12.16774511,
                -1.02172111,
                -1.83128528
            ],
            [
                -1.02172111,
                8.35643079,
                0.99183612
            ],
            [
                -1.83128528,
                0.99183612,
                7.12262201
            ]
        ],
        "epsilon_ionic_avg": 9.215599303333331,
        "epsilon_ionic_eig": [
            13.11037660041322,
            8.22802090748931,
            6.308400402097466
        ],
        "epsilon_electronic": [
            [
                4.39882409,
                -0.19453693,
                -0.28051785
            ],
            [
                -0.19453704,
                4.15057123,
                0.15819659
            ],
            [
                -0.28051875,
                0.1581981,
                3.9053549
            ]
        ],
        "epsilon_electronic_avg": 4.151583406666667,
        "epsilon_electronic_eig": [
            4.645564339885979,
            4.043975191760399,
            3.7652106883536236
        ]
    },
    "phonon": {
        "lowest_freq": -0.07705520962700328,
        "frequency": [
            -0.07705520962700328,
            -0.04324622064264682,
            -0.031549853309589794,
            1.9385025055818252,
            2.229004186844178,
            2.5277934143526997,
            3.4289424137263453,
            3.47717894317601,
            4.014985644521451,
            4.176279459429506,
            4.336557494132127,
            4.652816919468085,
            4.696547412504621,
            4.8573889118897196,
            5.049440432307414,
            5.060208505502495,
            5.176426924249852,
            5.489877796158253,
            5.631664993046561,
            5.816977881886831,
            6.227271901024637,
            6.432119464513798,
            6.476560929896907,
            6.778874892778728,
            6.780698020177506,
            7.170474702903049,
            7.170670837940139,
            7.494483635479879,
            7.660132611462033,
            8.014041921885806,
            8.32724498020572,
            8.541347607331103,
            8.663090901148744,
            8.783440570792628,
            9.186936968945298,
            9.487374618509271,
            9.562285966237628,
            9.886917212381455,
            10.065555280973236,
            10.435487013729865,
            10.776842808070393,
            10.975318155762814,
            11.03787098425575,
            11.270287471184114,
            11.562403687198143,
            11.644599430666446,
            12.032001067844002,
            12.248284247635876,
            13.036261984932306,
            13.138675446059498,
            15.966231021891867,
            16.74265985597512,
            19.368890033310027,
            20.639938471229158,
            22.71128161928412,
            22.737963351244286,
            23.201380180033784,
            23.289862858130796,
            24.31062140453162,
            24.856000414177913,
            25.008556903993306,
            25.21764934532066,
            25.300862591067894,
            25.99860157323259,
            27.007127833923864,
            27.11142774147461
        ]
    },
    "born_effective_charge": {
        "avg_abs_trace": 2.4651227272727274,
        "tensors": [
            [
                [
                    2.62449,
                    0.09264,
                    0.20117
                ],
                [
                    -0.15549,
                    3.17938,
                    -0.06341
                ],
                [
                    0.27985,
                    -0.03651,
                    2.65191
                ]
            ],
            [
                [
                    2.62437,
                    0.09248,
                    0.20125
                ],
                [
                    -0.15546,
                    3.17936,
                    -0.06363
                ],
                [
                    0.27989,
                    -0.03655,
                    2.65169
                ]
            ],
            [
                [
                    2.93339,
                    0.15001,
                    -0.04245
                ],
                [
                    0.29708,
                    2.72965,
                    0.07795
                ],
                [
                    -0.13107,
                    -0.14016,
                    2.98548
                ]
            ],
            [
                [
                    2.93308,
                    0.15,
                    -0.04217
                ],
                [
                    0.29686,
                    2.72963,
                    0.07766
                ],
                [
                    -0.13116,
                    -0.14053,
                    2.98507
                ]
            ],
            [
                [
                    5.38096,
                    -0.78745,
                    -0.78356
                ],
                [
                    -0.97366,
                    3.97545,
                    0.21553
                ],
                [
                    -1.40542,
                    0.77618,
                    3.3131
                ]
            ],
            [
                [
                    5.38105,
                    -0.78764,
                    -0.78366
                ],
                [
                    -0.97359,
                    3.97555,
                    0.21534
                ],
                [
                    -1.40555,
                    0.77612,
                    3.31312
                ]
            ],
            [
                [
                    3.88433,
                    -0.36874,
                    -0.46403
                ],
                [
                    -0.19864,
                    3.78707,
                    0.29188
                ],
                [
                    0.0625,
                    -0.05107,
                    3.22958
                ]
            ],
            [
                [
                    3.88451,
                    -0.3685,
                    -0.46397
                ],
                [
                    -0.19888,
                    3.78709,
                    0.29181
                ],
                [
                    0.06243,
                    -0.05124,
                    3.22975
                ]
            ],
            [
                [
                    -1.1278,
                    -0.20727,
                    -0.46634
                ],
                [
                    -0.42971,
                    -2.23561,
                    -0.93556
                ],
                [
                    -0.57933,
                    -1.08907,
                    -1.86031
                ]
            ],
            [
                [
                    -1.12781,
                    -0.20685,
                    -0.46578
                ],
                [
                    -0.42974,
                    -2.23574,
                    -0.93576
                ],
                [
                    -0.57942,
                    -1.08915,
                    -1.86097
                ]
            ],
            [
                [
                    -1.4332,
                    -0.74917,
                    0.95243
                ],
                [
                    -0.58693,
                    -1.83631,
                    0.83775
                ],
                [
                    0.73848,
                    0.91411,
                    -2.06329
                ]
            ],
            [
                [
                    -1.43307,
                    -0.74939,
                    0.95233
                ],
                [
                    -0.58677,
                    -1.83632,
                    0.83777
                ],
                [
                    0.73824,
                    0.91368,
                    -2.06251
                ]
            ],
            [
                [
                    -2.64075,
                    0.95631,
                    -0.98324
                ],
                [
                    1.00426,
                    -1.42763,
                    0.52862
                ],
                [
                    -0.92988,
                    0.48575,
                    -1.62282
                ]
            ],
            [
                [
                    -2.64023,
                    0.9562,
                    -0.98293
                ],
                [
                    1.00427,
                    -1.42756,
                    0.52869
                ],
                [
                    -0.92987,
                    0.48621,
                    -1.62284
                ]
            ],
            [
                [
                    -2.23851,
                    -1.02232,
                    0.4878
                ],
                [
                    -0.60164,
                    -2.464,
                    0.67187
                ],
                [
                    0.68952,
                    0.68285,
                    -1.03231
                ]
            ],
            [
                [
                    -2.23879,
                    -1.02262,
                    0.48833
                ],
                [
                    -0.60148,
                    -2.46392,
                    0.672
                ],
                [
                    0.68969,
                    0.6828,
                    -1.03249
                ]
            ],
            [
                [
                    -3.00954,
                    1.69931,
                    0.74208
                ],
                [
                    1.587,
                    -1.93507,
                    -0.71529
                ],
                [
                    0.9223,
                    -0.75724,
                    -1.54277
                ]
            ],
            [
                [
                    -3.00959,
                    1.69917,
                    0.74222
                ],
                [
                    1.58697,
                    -1.93487,
                    -0.71529
                ],
                [
                    0.92204,
                    -0.75716,
                    -1.5425
                ]
            ],
            [
                [
                    -2.70661,
                    0.99231,
                    0.83803
                ],
                [
                    1.03026,
                    -1.20081,
                    -0.0726
                ],
                [
                    0.83575,
                    -0.0735,
                    -2.29171
                ]
            ],
            [
                [
                    -1.66675,
                    -0.75547,
                    -0.48275
                ],
                [
                    -0.97245,
                    -2.57268,
                    -0.83649
                ],
                [
                    -0.48252,
                    -0.71116,
                    -1.76687
                ]
            ],
            [
                [
                    -1.66695,
                    -0.75535,
                    -0.4829
                ],
                [
                    -0.972,
                    -2.57219,
                    -0.83596
                ],
                [
                    -0.48244,
                    -0.71066,
                    -1.76682
                ]
            ],
            [
                [
                    -2.70656,
                    0.99233,
                    0.83815
                ],
                [
                    1.02974,
                    -1.20047,
                    -0.07288
                ],
                [
                    0.83598,
                    -0.07368,
                    -2.29149
                ]
            ]
        ]
    },
    "band_gap": 3.0144,
    "is_direct": false,
    "formula": "Ca2V2O7"
}