{
    "mp_id": "mp-28261",
    "nelements": 3,
    "nsites": 16,
    "elements": [
        "Na",
        "O",
        "Sn"
    ],
    "structure": {
        "@module": "pymatgen.core.structure",
        "@class": "Structure",
        "charge": null,
        "lattice": {
            "matrix": [
                [
                    2.88377607,
                    -8.25863723,
                    0.00032889
                ],
                [
                    2.88377607,
                    8.25863723,
                    0.00032889
                ],
                [
                    -1.99417145,
                    0.0,
                    5.48542197
                ]
            ],
            "a": 8.74764273543538,
            "b": 8.74764273543538,
            "c": 5.836657773156979,
            "alpha": 96.46512784340483,
            "beta": 96.46512784340483,
            "gamma": 141.50332856599525,
            "volume": 261.2931151450969
        },
        "sites": [
            {
                "species": [
                    {
                        "element": "Na",
                        "occu": 1
                    }
                ],
                "abc": [
                    0.52373468,
                    0.4563689,
                    0.7480338
                ],
                "xyz": [
                    1.3346916025303206,
                    -0.5563495387359891,
                    4.103603387089012
                ],
                "label": "Na",
                "properties": {}
            },
            {
                "species": [
                    {
                        "element": "Na",
                        "occu": 1
                    }
                ],
                "abc": [
                    0.96368912,
                    0.04971852,
                    0.78237241
                ],
                "xyz": [
                    1.36225597809748,
                    -7.548151624285437,
                    4.291976106174567
                ],
                "label": "Na",
                "properties": {}
            },
            {
                "species": [
                    {
                        "element": "Na",
                        "occu": 1
                    }
                ],
                "abc": [
                    0.5981561,
                    0.31730323,
                    0.30685014
                ],
                "xyz": [
                    2.0280679202957304,
                    -2.3194619683343496,
                    1.6835035848726194
                ],
                "label": "Na",
                "properties": {}
            },
            {
                "species": [
                    {
                        "element": "Na",
                        "occu": 1
                    }
                ],
                "abc": [
                    0.31730323,
                    0.5981561,
                    0.80685014
                ],
                "xyz": [
                    1.03098219529573,
                    2.3194619683343496,
                    4.426214569872619
                ],
                "label": "Na",
                "properties": {}
            },
            {
                "species": [
                    {
                        "element": "Na",
                        "occu": 1
                    }
                ],
                "abc": [
                    0.75287132,
                    0.25974305,
                    0.75112929
                ],
                "xyz": [
                    1.4222725029673557,
                    -4.072567489787492,
                    4.12059414841665
                ],
                "label": "Na",
                "properties": {}
            },
            {
                "species": [
                    {
                        "element": "Na",
                        "occu": 1
                    }
                ],
                "abc": [
                    0.25974305,
                    0.75287132,
                    0.25112929
                ],
                "xyz": [
                    2.4193582279673556,
                    4.072567489787492,
                    1.3778831634166506
                ],
                "label": "Na",
                "properties": {}
            },
            {
                "species": [
                    {
                        "element": "Na",
                        "occu": 1
                    }
                ],
                "abc": [
                    0.04971852,
                    0.96368912,
                    0.28237241
                ],
                "xyz": [
                    2.35934170309748,
                    7.548151624285437,
                    1.5492651211745674
                ],
                "label": "Na",
                "properties": {}
            },
            {
                "species": [
                    {
                        "element": "Na",
                        "occu": 1
                    }
                ],
                "abc": [
                    0.4563689,
                    0.52373468,
                    0.2480338
                ],
                "xyz": [
                    2.3317773275303204,
                    0.5563495387359891,
                    1.360892402089012
                ],
                "label": "Na",
                "properties": {}
            },
            {
                "species": [
                    {
                        "element": "Sn",
                        "occu": 1
                    }
                ],
                "abc": [
                    0.8673781,
                    0.1539148,
                    0.25085719
                ],
                "xyz": [
                    2.444927779155677,
                    -5.892234571618658,
                    1.3763934343803454
                ],
                "label": "Sn",
                "properties": {}
            },
            {
                "species": [
                    {
                        "element": "Sn",
                        "occu": 1
                    }
                ],
                "abc": [
                    0.1539148,
                    0.8673781,
                    0.75085719
                ],
                "xyz": [
                    1.4478420541556773,
                    5.892234571618658,
                    4.119104419380345
                ],
                "label": "Sn",
                "properties": {}
            },
            {
                "species": [
                    {
                        "element": "O",
                        "occu": 1
                    }
                ],
                "abc": [
                    0.05045858,
                    0.37343885,
                    0.02658012
                ],
                "xyz": [
                    1.169419948326926,
                    2.667376882377452,
                    0.14594258983898908
                ],
                "label": "O",
                "properties": {}
            },
            {
                "species": [
                    {
                        "element": "O",
                        "occu": 1
                    }
                ],
                "abc": [
                    0.37343885,
                    0.05045858,
                    0.52658012
                ],
                "xyz": [
                    0.17233422332692605,
                    -2.667376882377452,
                    2.888653574838989
                ],
                "label": "O",
                "properties": {}
            },
            {
                "species": [
                    {
                        "element": "O",
                        "occu": 1
                    }
                ],
                "abc": [
                    0.18050872,
                    0.31139702,
                    0.48921165
                ],
                "xyz": [
                    0.4429740962702493,
                    1.0809589873514092,
                    2.683694115768779
                ],
                "label": "O",
                "properties": {}
            },
            {
                "species": [
                    {
                        "element": "O",
                        "occu": 1
                    }
                ],
                "abc": [
                    0.31139702,
                    0.18050872,
                    0.98921165
                ],
                "xyz": [
                    -0.5541116287297507,
                    -1.0809589873514092,
                    5.426405100768779
                ],
                "label": "O",
                "properties": {}
            },
            {
                "species": [
                    {
                        "element": "O",
                        "occu": 1
                    }
                ],
                "abc": [
                    0.7028743,
                    0.8264427,
                    0.03746441
                ],
                "xyz": [
                    4.335497311231095,
                    1.020506588691532,
                    0.20601107477521766
                ],
                "label": "O",
                "properties": {}
            },
            {
                "species": [
                    {
                        "element": "O",
                        "occu": 1
                    }
                ],
                "abc": [
                    0.8264427,
                    0.7028743,
                    0.53746441
                ],
                "xyz": [
                    3.3384115862310955,
                    -1.020506588691532,
                    2.9487220597752177
                ],
                "label": "O",
                "properties": {}
            }
        ]
    },
    "spacegroup": {
        "source": "spglib",
        "symbol": "Cc",
        "number": 9,
        "point_group": "m",
        "crystal_system": "monoclinic",
        "hall": "C -2yc"
    },
    "dielectric": {
        "epsilon_ionic": [
            [
                4.36487788,
                -4.4e-07,
                0.12716369
            ],
            [
                -4.4e-07,
                4.70724545,
                -2.6e-07
            ],
            [
                0.12716369,
                -2.6e-07,
                4.80709908
            ]
        ],
        "epsilon_ionic_avg": 4.626407470000001,
        "epsilon_ionic_eig": [
            4.330918878739973,
            4.841058081260685,
            4.707245449999346
        ],
        "epsilon_electronic": [
            [
                3.68742314,
                0.0,
                0.0904912
            ],
            [
                0.0,
                3.7321861,
                0.0
            ],
            [
                0.09029804,
                0.0,
                3.78831212
            ]
        ],
        "epsilon_electronic_avg": 3.735973786666667,
        "epsilon_electronic_eig": [
            3.634350362992954,
            3.841384897007046,
            3.7321861
        ]
    },
    "phonon": {
        "lowest_freq": -0.08234549509501074,
        "frequency": [
            -0.08234549509501074,
            -0.02439814150304988,
            -0.012718349795667369,
            2.358066580366116,
            2.47861861410334,
            2.578433333040152,
            2.934817416586357,
            3.166664368920071,
            3.23593868018756,
            3.6838544372659605,
            3.6963967178997317,
            3.9699963084941152,
            4.183878630851455,
            4.549565176399873,
            4.752032552377565,
            4.778894969723617,
            4.793916363869397,
            5.097723742816932,
            5.128407467743625,
            5.367623291492219,
            5.589517579110591,
            5.632765662849221,
            5.746987617137728,
            6.421355113383486,
            6.597310679418998,
            6.6360241544966945,
            6.883798593074438,
            7.1145325764134455,
            7.2445947258294625,
            7.384344964427526,
            7.743499749346147,
            7.800418722163839,
            8.016736336824977,
            8.69628688003356,
            9.027247603012961,
            9.690834742177143,
            9.952908598923335,
            10.051944948510831,
            10.536940228789398,
            10.707906081537198,
            11.354129150998236,
            11.73264512842201,
            14.922191783965975,
            14.9230155733311,
            15.521323251399076,
            15.804339574516556,
            17.027333307549394,
            17.356007179858672
        ]
    },
    "born_effective_charge": {
        "avg_abs_trace": 1.3567010416666667,
        "tensors": [
            [
                [
                    1.2367,
                    0.02297,
                    0.119
                ],
                [
                    0.0196,
                    1.19195,
                    0.04591
                ],
                [
                    0.16891,
                    0.04995,
                    0.93819
                ]
            ],
            [
                [
                    0.72666,
                    -0.00998,
                    -0.15596
                ],
                [
                    -0.00174,
                    1.16772,
                    0.03846
                ],
                [
                    -0.20841,
                    0.0607,
                    1.03767
                ]
            ],
            [
                [
                    1.04915,
                    0.01147,
                    0.14257
                ],
                [
                    -0.06504,
                    0.92146,
                    0.04567
                ],
                [
                    0.15626,
                    -0.02357,
                    1.12182
                ]
            ],
            [
                [
                    1.04915,
                    -0.01147,
                    0.14257
                ],
                [
                    0.06504,
                    0.92146,
                    -0.04567
                ],
                [
                    0.15626,
                    0.02357,
                    1.12182
                ]
            ],
            [
                [
                    1.09449,
                    -0.01146,
                    -0.0741
                ],
                [
                    -0.05603,
                    0.80883,
                    -0.04619
                ],
                [
                    -0.06249,
                    -0.00499,
                    1.00857
                ]
            ],
            [
                [
                    1.09449,
                    0.01146,
                    -0.0741
                ],
                [
                    0.05603,
                    0.80883,
                    0.04619
                ],
                [
                    -0.06249,
                    0.00499,
                    1.00857
                ]
            ],
            [
                [
                    0.72666,
                    0.00998,
                    -0.15596
                ],
                [
                    0.00174,
                    1.16772,
                    -0.03846
                ],
                [
                    -0.20841,
                    -0.0607,
                    1.03767
                ]
            ],
            [
                [
                    1.2367,
                    -0.02297,
                    0.119
                ],
                [
                    -0.0196,
                    1.19195,
                    -0.04591
                ],
                [
                    0.16891,
                    -0.04995,
                    0.93819
                ]
            ],
            [
                [
                    1.24064,
                    -0.08333,
                    -0.07527
                ],
                [
                    -0.06573,
                    1.46355,
                    0.05915
                ],
                [
                    -0.14497,
                    0.02046,
                    1.27301
                ]
            ],
            [
                [
                    1.24064,
                    0.08333,
                    -0.07527
                ],
                [
                    0.06573,
                    1.46355,
                    -0.05915
                ],
                [
                    -0.14497,
                    -0.02046,
                    1.27301
                ]
            ],
            [
                [
                    -2.22176,
                    -0.07888,
                    0.78674
                ],
                [
                    -0.35927,
                    -1.30411,
                    0.2857
                ],
                [
                    0.82389,
                    0.0126,
                    -1.80915
                ]
            ],
            [
                [
                    -2.22176,
                    0.07888,
                    0.78674
                ],
                [
                    0.35926,
                    -1.30411,
                    -0.2857
                ],
                [
                    0.82389,
                    -0.0126,
                    -1.80915
                ]
            ],
            [
                [
                    -1.49909,
                    0.489,
                    -0.2276
                ],
                [
                    0.41955,
                    -2.07976,
                    0.38886
                ],
                [
                    -0.46432,
                    0.76236,
                    -1.87314
                ]
            ],
            [
                [
                    -1.49909,
                    -0.489,
                    -0.2276
                ],
                [
                    -0.41954,
                    -2.07976,
                    -0.38886
                ],
                [
                    -0.46432,
                    -0.76236,
                    -1.87314
                ]
            ],
            [
                [
                    -1.62679,
                    -0.50061,
                    -0.51538
                ],
                [
                    -0.27315,
                    -2.16964,
                    -0.53544
                ],
                [
                    -0.26887,
                    -0.73809,
                    -1.69697
                ]
            ],
            [
                [
                    -1.62679,
                    0.50061,
                    -0.51538
                ],
                [
                    0.27315,
                    -2.16965,
                    0.53544
                ],
                [
                    -0.26887,
                    0.73809,
                    -1.69697
                ]
            ]
        ]
    },
    "band_gap": 1.8319,
    "is_direct": false,
    "formula": "Na4SnO3"
}