{
    "mp_id": "mp-29205",
    "nelements": 3,
    "nsites": 30,
    "elements": [
        "B",
        "O",
        "Y"
    ],
    "structure": {
        "@module": "pymatgen.core.structure",
        "@class": "Structure",
        "charge": null,
        "lattice": {
            "matrix": [
                [
                    5.64103996,
                    -3.25283843,
                    0.0
                ],
                [
                    5.64103996,
                    3.25283843,
                    0.0
                ],
                [
                    0.0,
                    0.0,
                    8.81313683
                ]
            ],
            "a": 6.511704053625415,
            "b": 6.511704053625415,
            "c": 8.81313683,
            "alpha": 90.0,
            "beta": 90.0,
            "gamma": 59.938772640649596,
            "volume": 323.43139725538407
        },
        "sites": [
            {
                "species": [
                    {
                        "element": "Y",
                        "occu": 1
                    }
                ],
                "abc": [
                    0.67026708,
                    0.67026708,
                    0.0
                ],
                "xyz": [
                    7.562006764305034,
                    0.0,
                    0.0
                ],
                "label": "Y",
                "properties": {}
            },
            {
                "species": [
                    {
                        "element": "Y",
                        "occu": 1
                    }
                ],
                "abc": [
                    0.67026708,
                    0.67026708,
                    0.5
                ],
                "xyz": [
                    7.562006764305034,
                    0.0,
                    4.406568415
                ],
                "label": "Y",
                "properties": {}
            },
            {
                "species": [
                    {
                        "element": "Y",
                        "occu": 1
                    }
                ],
                "abc": [
                    0.0,
                    0.0,
                    0.0
                ],
                "xyz": [
                    0.0,
                    0.0,
                    0.0
                ],
                "label": "Y",
                "properties": {}
            },
            {
                "species": [
                    {
                        "element": "Y",
                        "occu": 1
                    }
                ],
                "abc": [
                    0.0,
                    0.0,
                    0.5
                ],
                "xyz": [
                    0.0,
                    0.0,
                    4.406568415
                ],
                "label": "Y",
                "properties": {}
            },
            {
                "species": [
                    {
                        "element": "Y",
                        "occu": 1
                    }
                ],
                "abc": [
                    0.32973292,
                    0.32973292,
                    0.0
                ],
                "xyz": [
                    3.720073155694966,
                    0.0,
                    0.0
                ],
                "label": "Y",
                "properties": {}
            },
            {
                "species": [
                    {
                        "element": "Y",
                        "occu": 1
                    }
                ],
                "abc": [
                    0.32973292,
                    0.32973292,
                    0.5
                ],
                "xyz": [
                    3.720073155694966,
                    0.0,
                    4.406568415
                ],
                "label": "Y",
                "properties": {}
            },
            {
                "species": [
                    {
                        "element": "B",
                        "occu": 1
                    }
                ],
                "abc": [
                    0.66574166,
                    0.09275237,
                    0.25
                ],
                "xyz": [
                    4.278695132651439,
                    -1.8638415824904149,
                    2.2032842075
                ],
                "label": "B",
                "properties": {}
            },
            {
                "species": [
                    {
                        "element": "B",
                        "occu": 1
                    }
                ],
                "abc": [
                    0.90724763,
                    0.33425834,
                    0.25
                ],
                "xyz": [
                    7.00338478734856,
                    -1.8638415824904147,
                    2.2032842075
                ],
                "label": "B",
                "properties": {}
            },
            {
                "species": [
                    {
                        "element": "B",
                        "occu": 1
                    }
                ],
                "abc": [
                    0.4234572,
                    0.5765428,
                    0.25
                ],
                "xyz": [
                    5.64103996,
                    0.49796272275960796,
                    2.2032842075
                ],
                "label": "B",
                "properties": {}
            },
            {
                "species": [
                    {
                        "element": "B",
                        "occu": 1
                    }
                ],
                "abc": [
                    0.5765428,
                    0.4234572,
                    0.75
                ],
                "xyz": [
                    5.64103996,
                    -0.49796272275960796,
                    6.6098526225
                ],
                "label": "B",
                "properties": {}
            },
            {
                "species": [
                    {
                        "element": "B",
                        "occu": 1
                    }
                ],
                "abc": [
                    0.33425834,
                    0.90724763,
                    0.75
                ],
                "xyz": [
                    7.00338478734856,
                    1.8638415824904147,
                    6.6098526225
                ],
                "label": "B",
                "properties": {}
            },
            {
                "species": [
                    {
                        "element": "B",
                        "occu": 1
                    }
                ],
                "abc": [
                    0.09275237,
                    0.66574166,
                    0.75
                ],
                "xyz": [
                    4.278695132651439,
                    1.8638415824904149,
                    6.6098526225
                ],
                "label": "B",
                "properties": {}
            },
            {
                "species": [
                    {
                        "element": "O",
                        "occu": 1
                    }
                ],
                "abc": [
                    0.55342102,
                    0.66530852,
                    0.75
                ],
                "xyz": [
                    6.874902035572418,
                    0.36395195983662476,
                    6.6098526225
                ],
                "label": "O",
                "properties": {}
            },
            {
                "species": [
                    {
                        "element": "O",
                        "occu": 1
                    }
                ],
                "abc": [
                    0.33469148,
                    0.44657898,
                    0.75
                ],
                "xyz": [
                    4.407177884427582,
                    0.3639519598366252,
                    6.6098526225
                ],
                "label": "O",
                "properties": {}
            },
            {
                "species": [
                    {
                        "element": "O",
                        "occu": 1
                    }
                ],
                "abc": [
                    0.11637596,
                    0.88362404,
                    0.75
                ],
                "xyz": [
                    5.64103996,
                    2.4957340399677146,
                    6.6098526225
                ],
                "label": "O",
                "properties": {}
            },
            {
                "species": [
                    {
                        "element": "O",
                        "occu": 1
                    }
                ],
                "abc": [
                    0.88362404,
                    0.11637596,
                    0.25
                ],
                "xyz": [
                    5.64103996,
                    -2.4957340399677146,
                    2.2032842075
                ],
                "label": "O",
                "properties": {}
            },
            {
                "species": [
                    {
                        "element": "O",
                        "occu": 1
                    }
                ],
                "abc": [
                    0.44657898,
                    0.33469148,
                    0.25
                ],
                "xyz": [
                    4.407177884427582,
                    -0.3639519598366252,
                    2.2032842075
                ],
                "label": "O",
                "properties": {}
            },
            {
                "species": [
                    {
                        "element": "O",
                        "occu": 1
                    }
                ],
                "abc": [
                    0.66530852,
                    0.55342102,
                    0.25
                ],
                "xyz": [
                    6.874902035572418,
                    -0.36395195983662476,
                    2.2032842075
                ],
                "label": "O",
                "properties": {}
            },
            {
                "species": [
                    {
                        "element": "O",
                        "occu": 1
                    }
                ],
                "abc": [
                    0.98273905,
                    0.66624509,
                    0.60745109
                ],
                "xyz": [
                    9.301985427146233,
                    -1.0295037159508826,
                    5.353549573702644
                ],
                "label": "O",
                "properties": {}
            },
            {
                "species": [
                    {
                        "element": "O",
                        "occu": 1
                    }
                ],
                "abc": [
                    0.98273905,
                    0.66624509,
                    0.89254891
                ],
                "xyz": [
                    9.301985427146233,
                    -1.0295037159508826,
                    7.8661556712973555
                ],
                "label": "O",
                "properties": {}
            },
            {
                "species": [
                    {
                        "element": "O",
                        "occu": 1
                    }
                ],
                "abc": [
                    0.33375491,
                    0.01726095,
                    0.60745109
                ],
                "xyz": [
                    1.9800944928537656,
                    -1.0295037159508829,
                    5.353549573702644
                ],
                "label": "O",
                "properties": {}
            },
            {
                "species": [
                    {
                        "element": "O",
                        "occu": 1
                    }
                ],
                "abc": [
                    0.33375491,
                    0.01726095,
                    0.89254891
                ],
                "xyz": [
                    1.9800944928537656,
                    -1.0295037159508829,
                    7.8661556712973555
                ],
                "label": "O",
                "properties": {}
            },
            {
                "species": [
                    {
                        "element": "O",
                        "occu": 1
                    }
                ],
                "abc": [
                    0.68532295,
                    0.31467705,
                    0.60564209
                ],
                "xyz": [
                    5.64103996,
                    -1.205651227441937,
                    5.3376066091771746
                ],
                "label": "O",
                "properties": {}
            },
            {
                "species": [
                    {
                        "element": "O",
                        "occu": 1
                    }
                ],
                "abc": [
                    0.68532295,
                    0.31467705,
                    0.89435791
                ],
                "xyz": [
                    5.64103996,
                    -1.205651227441937,
                    7.882098635822825
                ],
                "label": "O",
                "properties": {}
            },
            {
                "species": [
                    {
                        "element": "O",
                        "occu": 1
                    }
                ],
                "abc": [
                    0.31467705,
                    0.68532295,
                    0.10564209
                ],
                "xyz": [
                    5.64103996,
                    1.205651227441937,
                    0.9310381941771746
                ],
                "label": "O",
                "properties": {}
            },
            {
                "species": [
                    {
                        "element": "O",
                        "occu": 1
                    }
                ],
                "abc": [
                    0.31467705,
                    0.68532295,
                    0.39435791
                ],
                "xyz": [
                    5.64103996,
                    1.205651227441937,
                    3.475530220822825
                ],
                "label": "O",
                "properties": {}
            },
            {
                "species": [
                    {
                        "element": "O",
                        "occu": 1
                    }
                ],
                "abc": [
                    0.01726095,
                    0.33375491,
                    0.10745109
                ],
                "xyz": [
                    1.9800944928537656,
                    1.0295037159508829,
                    0.9469811587026447
                ],
                "label": "O",
                "properties": {}
            },
            {
                "species": [
                    {
                        "element": "O",
                        "occu": 1
                    }
                ],
                "abc": [
                    0.01726095,
                    0.33375491,
                    0.39254891
                ],
                "xyz": [
                    1.9800944928537656,
                    1.0295037159508829,
                    3.459587256297355
                ],
                "label": "O",
                "properties": {}
            },
            {
                "species": [
                    {
                        "element": "O",
                        "occu": 1
                    }
                ],
                "abc": [
                    0.66624509,
                    0.98273905,
                    0.10745109
                ],
                "xyz": [
                    9.301985427146233,
                    1.0295037159508826,
                    0.9469811587026447
                ],
                "label": "O",
                "properties": {}
            },
            {
                "species": [
                    {
                        "element": "O",
                        "occu": 1
                    }
                ],
                "abc": [
                    0.66624509,
                    0.98273905,
                    0.39254891
                ],
                "xyz": [
                    9.301985427146233,
                    1.0295037159508826,
                    3.459587256297355
                ],
                "label": "O",
                "properties": {}
            }
        ]
    },
    "spacegroup": {
        "source": "spglib",
        "symbol": "Cmcm",
        "number": 63,
        "point_group": "mmm",
        "crystal_system": "orthorhombic",
        "hall": "-C 2c 2"
    },
    "dielectric": {
        "epsilon_ionic": [
            [
                9.51746794,
                0.0,
                0.0
            ],
            [
                0.0,
                9.44770381,
                0.0
            ],
            [
                0.0,
                0.0,
                6.30571755
            ]
        ],
        "epsilon_ionic_avg": 8.423629766666666,
        "epsilon_ionic_eig": [
            9.51746794,
            9.44770381,
            6.30571755
        ],
        "epsilon_electronic": [
            [
                3.54736498,
                0.0,
                0.0
            ],
            [
                0.0,
                3.55385795,
                0.0
            ],
            [
                0.0,
                -0.0,
                3.62503882
            ]
        ],
        "epsilon_electronic_avg": 3.575420583333333,
        "epsilon_electronic_eig": [
            3.54736498,
            3.55385795,
            3.62503882
        ]
    },
    "phonon": {
        "lowest_freq": -0.047096003882034776,
        "frequency": [
            -0.047096003882034776,
            -0.044894908336948966,
            -0.038049998531329274,
            3.4539831309507583,
            3.563264501534943,
            3.9742862488732835,
            4.080529983314082,
            5.076860847800849,
            5.2193602970579915,
            5.234944710855674,
            5.380936038898455,
            5.422661969136851,
            5.639416742615198,
            5.754839328538806,
            5.839327286190378,
            5.989366059042021,
            6.050523570961186,
            6.408332154962844,
            6.549198064179294,
            6.557066671988754,
            7.12131138948024,
            7.247556537137009,
            7.251219696351598,
            7.279090572930549,
            7.560716554023231,
            7.7258857625778,
            7.802358255947826,
            7.810714438021246,
            7.8827650179329085,
            8.327967429813334,
            8.45187624649583,
            8.812766519120562,
            8.962923622202371,
            9.547489417017179,
            10.093642907256442,
            10.171856979703767,
            10.435760498343859,
            11.140961268892857,
            11.293966440681592,
            11.588780976708085,
            11.595352818678794,
            11.666025869406333,
            11.929483533534091,
            11.943974628141705,
            12.219342067512798,
            12.41749789623048,
            12.989084786048439,
            13.182756619175406,
            13.697748097378721,
            14.288009533048596,
            14.417549128339022,
            15.101243377384614,
            16.25594620759868,
            16.277729917695495,
            16.549547810731752,
            16.56039510593955,
            17.912233632693006,
            18.13099116904795,
            18.43680694300459,
            18.912616649683336,
            20.018042271695805,
            20.02010701109897,
            20.11078542147683,
            20.118116896451415,
            20.46981373054728,
            20.856243477452264,
            20.959529919663304,
            21.097113246147444,
            24.1955454447482,
            24.196139075487288,
            24.785452521154433,
            25.000543602345516,
            25.294469005736183,
            25.318042959196973,
            26.90672922313667,
            26.986490012795258,
            27.125717655427472,
            27.181293820437553,
            29.073596892367007,
            29.32206148929553,
            29.641506787048826,
            29.641705701814846,
            29.97463751157166,
            30.229096140240756,
            30.514719943751835,
            30.602659417438673,
            30.914809761694578,
            31.343078597986064,
            31.447058113635403,
            35.675573423506485
        ]
    },
    "born_effective_charge": {
        "avg_abs_trace": 2.494066222222222,
        "tensors": [
            [
                [
                    3.98748,
                    -0.0,
                    -0.0
                ],
                [
                    -5e-05,
                    3.67616,
                    -0.08887
                ],
                [
                    3e-05,
                    -0.0721,
                    3.69497
                ]
            ],
            [
                [
                    3.98748,
                    -0.0,
                    -0.0
                ],
                [
                    -5e-05,
                    3.67616,
                    0.08887
                ],
                [
                    3e-05,
                    0.0721,
                    3.69497
                ]
            ],
            [
                [
                    3.52272,
                    -0.0,
                    -0.0
                ],
                [
                    -0.0,
                    4.27648,
                    0.26772
                ],
                [
                    -0.0,
                    0.17452,
                    3.73154
                ]
            ],
            [
                [
                    3.52272,
                    -0.0,
                    -0.0
                ],
                [
                    -0.0,
                    4.27648,
                    -0.26772
                ],
                [
                    -0.0,
                    -0.17452,
                    3.73154
                ]
            ],
            [
                [
                    3.98736,
                    -0.0,
                    -0.0
                ],
                [
                    5e-05,
                    3.67616,
                    -0.08887
                ],
                [
                    -3e-05,
                    -0.0721,
                    3.69497
                ]
            ],
            [
                [
                    3.98736,
                    -0.0,
                    -0.0
                ],
                [
                    5e-05,
                    3.67616,
                    0.08887
                ],
                [
                    -3e-05,
                    0.0721,
                    3.69497
                ]
            ],
            [
                [
                    2.17813,
                    0.03134,
                    -0.0
                ],
                [
                    0.02038,
                    2.15595,
                    0.0
                ],
                [
                    -3e-05,
                    4e-05,
                    2.92734
                ]
            ],
            [
                [
                    2.17824,
                    -0.03125,
                    -0.0
                ],
                [
                    -0.02038,
                    2.15595,
                    0.0
                ],
                [
                    3e-05,
                    4e-05,
                    2.92734
                ]
            ],
            [
                [
                    2.16095,
                    -3e-05,
                    -0.0
                ],
                [
                    -0.0,
                    2.21187,
                    0.0
                ],
                [
                    -0.0,
                    1e-05,
                    2.97298
                ]
            ],
            [
                [
                    2.16095,
                    3e-05,
                    -0.0
                ],
                [
                    -0.0,
                    2.21186,
                    0.0
                ],
                [
                    -0.0,
                    -1e-05,
                    2.97298
                ]
            ],
            [
                [
                    2.17824,
                    0.03125,
                    -0.0
                ],
                [
                    0.02047,
                    2.15586,
                    0.0
                ],
                [
                    3e-05,
                    -4e-05,
                    2.92734
                ]
            ],
            [
                [
                    2.17813,
                    -0.03134,
                    -0.0
                ],
                [
                    -0.02047,
                    2.15586,
                    0.0
                ],
                [
                    -3e-05,
                    -4e-05,
                    2.92734
                ]
            ],
            [
                [
                    -1.57246,
                    -0.51053,
                    -0.0
                ],
                [
                    -0.51408,
                    -2.19049,
                    0.0
                ],
                [
                    2e-05,
                    4e-05,
                    -2.19652
                ]
            ],
            [
                [
                    -1.57255,
                    0.51065,
                    -0.0
                ],
                [
                    0.51408,
                    -2.19049,
                    0.0
                ],
                [
                    -2e-05,
                    4e-05,
                    -2.19652
                ]
            ],
            [
                [
                    -2.51369,
                    3e-05,
                    -0.0
                ],
                [
                    -0.0,
                    -1.31303,
                    0.0
                ],
                [
                    -0.0,
                    5e-05,
                    -2.25199
                ]
            ],
            [
                [
                    -2.51369,
                    -3e-05,
                    -0.0
                ],
                [
                    -0.0,
                    -1.31304,
                    0.0
                ],
                [
                    -0.0,
                    -5e-05,
                    -2.25199
                ]
            ],
            [
                [
                    -1.57255,
                    -0.51065,
                    -0.0
                ],
                [
                    -0.51414,
                    -2.19061,
                    0.0
                ],
                [
                    -2e-05,
                    -4e-05,
                    -2.19652
                ]
            ],
            [
                [
                    -1.57246,
                    0.51053,
                    -0.0
                ],
                [
                    0.51414,
                    -2.19061,
                    0.0
                ],
                [
                    2e-05,
                    -4e-05,
                    -2.19652
                ]
            ],
            [
                [
                    -2.19949,
                    0.207,
                    -0.49063
                ],
                [
                    0.257,
                    -1.93571,
                    0.28752
                ],
                [
                    -0.54417,
                    0.31452,
                    -2.19124
                ]
            ],
            [
                [
                    -2.19949,
                    0.207,
                    0.49063
                ],
                [
                    0.257,
                    -1.93571,
                    -0.28752
                ],
                [
                    0.54419,
                    -0.31454,
                    -2.19126
                ]
            ],
            [
                [
                    -2.19955,
                    -0.20693,
                    0.49066
                ],
                [
                    -0.257,
                    -1.93571,
                    0.28752
                ],
                [
                    0.54417,
                    0.31452,
                    -2.19124
                ]
            ],
            [
                [
                    -2.19955,
                    -0.20693,
                    -0.49066
                ],
                [
                    -0.257,
                    -1.93571,
                    -0.28752
                ],
                [
                    -0.54419,
                    -0.31454,
                    -2.19126
                ]
            ],
            [
                [
                    -1.77904,
                    -2e-05,
                    -5e-05
                ],
                [
                    -0.0,
                    -2.35771,
                    -0.5579
                ],
                [
                    -0.0,
                    -0.63553,
                    -2.26954
                ]
            ],
            [
                [
                    -1.77904,
                    -2e-05,
                    5e-05
                ],
                [
                    -0.0,
                    -2.35771,
                    0.5579
                ],
                [
                    -0.0,
                    0.63567,
                    -2.26958
                ]
            ],
            [
                [
                    -1.77904,
                    2e-05,
                    -5e-05
                ],
                [
                    -0.0,
                    -2.35769,
                    0.55786
                ],
                [
                    -0.0,
                    0.63553,
                    -2.26954
                ]
            ],
            [
                [
                    -1.77904,
                    2e-05,
                    5e-05
                ],
                [
                    -0.0,
                    -2.35769,
                    -0.55786
                ],
                [
                    -0.0,
                    -0.63567,
                    -2.26958
                ]
            ],
            [
                [
                    -2.19955,
                    0.20693,
                    0.49066
                ],
                [
                    0.25696,
                    -1.93576,
                    -0.28746
                ],
                [
                    0.54417,
                    -0.31452,
                    -2.19124
                ]
            ],
            [
                [
                    -2.19955,
                    0.20693,
                    -0.49066
                ],
                [
                    0.25696,
                    -1.93576,
                    0.28746
                ],
                [
                    -0.54419,
                    0.31454,
                    -2.19126
                ]
            ],
            [
                [
                    -2.19949,
                    -0.207,
                    -0.49063
                ],
                [
                    -0.25696,
                    -1.93576,
                    -0.28746
                ],
                [
                    -0.54417,
                    -0.31452,
                    -2.19124
                ]
            ],
            [
                [
                    -2.19949,
                    -0.207,
                    0.49063
                ],
                [
                    -0.25696,
                    -1.93576,
                    0.28746
                ],
                [
                    0.54419,
                    0.31454,
                    -2.19126
                ]
            ]
        ]
    },
    "band_gap": 5.2864,
    "is_direct": false,
    "formula": "YBO3"
}