{
    "mp_id": "mp-23426",
    "nelements": 3,
    "nsites": 30,
    "elements": [
        "Al",
        "Bi",
        "O"
    ],
    "structure": {
        "@module": "pymatgen.core.structure",
        "@class": "Structure",
        "charge": null,
        "lattice": {
            "matrix": [
                [
                    7.67739433,
                    0.0,
                    0.0
                ],
                [
                    0.0,
                    8.1614636,
                    0.0
                ],
                [
                    0.0,
                    0.0,
                    5.70985673
                ]
            ],
            "a": 7.67739433,
            "b": 8.1614636,
            "c": 5.70985673,
            "alpha": 90.0,
            "beta": 90.0,
            "gamma": 90.0,
            "volume": 357.77262451377374
        },
        "sites": [
            {
                "species": [
                    {
                        "element": "Al",
                        "occu": 1
                    }
                ],
                "abc": [
                    0.14762968,
                    0.83734634,
                    0.5
                ],
                "xyz": [
                    1.1334112681717146,
                    6.833971674503223,
                    2.854928365
                ],
                "label": "Al",
                "properties": {}
            },
            {
                "species": [
                    {
                        "element": "Al",
                        "occu": 1
                    }
                ],
                "abc": [
                    0.85237032,
                    0.16265366,
                    0.5
                ],
                "xyz": [
                    6.543983061828286,
                    1.3274919254967759,
                    2.854928365
                ],
                "label": "Al",
                "properties": {}
            },
            {
                "species": [
                    {
                        "element": "Al",
                        "occu": 1
                    }
                ],
                "abc": [
                    0.64762968,
                    0.66265366,
                    0.5
                ],
                "xyz": [
                    4.972108433171714,
                    5.408223725496776,
                    2.854928365
                ],
                "label": "Al",
                "properties": {}
            },
            {
                "species": [
                    {
                        "element": "Al",
                        "occu": 1
                    }
                ],
                "abc": [
                    0.35237032,
                    0.33734634,
                    0.5
                ],
                "xyz": [
                    2.705285896828286,
                    2.753239874503224,
                    2.854928365
                ],
                "label": "Al",
                "properties": {}
            },
            {
                "species": [
                    {
                        "element": "Al",
                        "occu": 1
                    }
                ],
                "abc": [
                    0.0,
                    0.5,
                    0.25997359
                ],
                "xyz": [
                    0.0,
                    4.0807318,
                    1.4844119524837607
                ],
                "label": "Al",
                "properties": {}
            },
            {
                "species": [
                    {
                        "element": "Al",
                        "occu": 1
                    }
                ],
                "abc": [
                    0.5,
                    0.0,
                    0.74002641
                ],
                "xyz": [
                    3.838697165,
                    0.0,
                    4.225444777516239
                ],
                "label": "Al",
                "properties": {}
            },
            {
                "species": [
                    {
                        "element": "Al",
                        "occu": 1
                    }
                ],
                "abc": [
                    0.0,
                    0.5,
                    0.74002641
                ],
                "xyz": [
                    0.0,
                    4.0807318,
                    4.225444777516239
                ],
                "label": "Al",
                "properties": {}
            },
            {
                "species": [
                    {
                        "element": "Al",
                        "occu": 1
                    }
                ],
                "abc": [
                    0.5,
                    0.0,
                    0.25997359
                ],
                "xyz": [
                    3.838697165,
                    0.0,
                    1.4844119524837607
                ],
                "label": "Al",
                "properties": {}
            },
            {
                "species": [
                    {
                        "element": "Bi",
                        "occu": 1
                    }
                ],
                "abc": [
                    0.33444409,
                    0.66738011,
                    0.0
                ],
                "xyz": [
                    2.56765916026801,
                    5.446798475128995,
                    0.0
                ],
                "label": "Bi",
                "properties": {}
            },
            {
                "species": [
                    {
                        "element": "Bi",
                        "occu": 1
                    }
                ],
                "abc": [
                    0.66555591,
                    0.33261989,
                    0.0
                ],
                "xyz": [
                    5.109735169731991,
                    2.7146651248710034,
                    0.0
                ],
                "label": "Bi",
                "properties": {}
            },
            {
                "species": [
                    {
                        "element": "Bi",
                        "occu": 1
                    }
                ],
                "abc": [
                    0.83444409,
                    0.83261989,
                    0.0
                ],
                "xyz": [
                    6.40635632526801,
                    6.795396924871004,
                    0.0
                ],
                "label": "Bi",
                "properties": {}
            },
            {
                "species": [
                    {
                        "element": "Bi",
                        "occu": 1
                    }
                ],
                "abc": [
                    0.16555591,
                    0.16738011,
                    0.0
                ],
                "xyz": [
                    1.2710380047319902,
                    1.3660666751289958,
                    0.0
                ],
                "label": "Bi",
                "properties": {}
            },
            {
                "species": [
                    {
                        "element": "O",
                        "occu": 1
                    }
                ],
                "abc": [
                    0.35417351,
                    0.93420066,
                    0.0
                ],
                "xyz": [
                    2.7191296975101986,
                    7.624444681685976,
                    0.0
                ],
                "label": "O",
                "properties": {}
            },
            {
                "species": [
                    {
                        "element": "O",
                        "occu": 1
                    }
                ],
                "abc": [
                    0.64582649,
                    0.06579934,
                    0.0
                ],
                "xyz": [
                    4.9582646324898025,
                    0.5370189183140239,
                    0.0
                ],
                "label": "O",
                "properties": {}
            },
            {
                "species": [
                    {
                        "element": "O",
                        "occu": 1
                    }
                ],
                "abc": [
                    0.85417351,
                    0.56579934,
                    0.0
                ],
                "xyz": [
                    6.557826862510198,
                    4.617750718314023,
                    0.0
                ],
                "label": "O",
                "properties": {}
            },
            {
                "species": [
                    {
                        "element": "O",
                        "occu": 1
                    }
                ],
                "abc": [
                    0.14582649,
                    0.43420066,
                    0.0
                ],
                "xyz": [
                    1.1195674674898017,
                    3.543712881685976,
                    0.0
                ],
                "label": "O",
                "properties": {}
            },
            {
                "species": [
                    {
                        "element": "O",
                        "occu": 1
                    }
                ],
                "abc": [
                    0.36244552,
                    0.91307305,
                    0.5
                ],
                "xyz": [
                    2.7826371801819016,
                    7.45201246171598,
                    2.854928365
                ],
                "label": "O",
                "properties": {}
            },
            {
                "species": [
                    {
                        "element": "O",
                        "occu": 1
                    }
                ],
                "abc": [
                    0.63755448,
                    0.08692695,
                    0.5
                ],
                "xyz": [
                    4.894757149818099,
                    0.70945113828402,
                    2.854928365
                ],
                "label": "O",
                "properties": {}
            },
            {
                "species": [
                    {
                        "element": "O",
                        "occu": 1
                    }
                ],
                "abc": [
                    0.86244552,
                    0.58692695,
                    0.5
                ],
                "xyz": [
                    6.621334345181902,
                    4.790182938284019,
                    2.854928365
                ],
                "label": "O",
                "properties": {}
            },
            {
                "species": [
                    {
                        "element": "O",
                        "occu": 1
                    }
                ],
                "abc": [
                    0.13755448,
                    0.41307305,
                    0.5
                ],
                "xyz": [
                    1.0560599848180985,
                    3.37128066171598,
                    2.854928365
                ],
                "label": "O",
                "properties": {}
            },
            {
                "species": [
                    {
                        "element": "O",
                        "occu": 1
                    }
                ],
                "abc": [
                    0.87571067,
                    0.29314668,
                    0.24946914
                ],
                "xyz": [
                    6.7231761325785016,
                    2.392505958280848,
                    1.4244330479563123
                ],
                "label": "O",
                "properties": {}
            },
            {
                "species": [
                    {
                        "element": "O",
                        "occu": 1
                    }
                ],
                "abc": [
                    0.12428933,
                    0.70685332,
                    0.24946914
                ],
                "xyz": [
                    0.9542181974214989,
                    5.768957641719152,
                    1.4244330479563123
                ],
                "label": "O",
                "properties": {}
            },
            {
                "species": [
                    {
                        "element": "O",
                        "occu": 1
                    }
                ],
                "abc": [
                    0.37571067,
                    0.20685332,
                    0.75053086
                ],
                "xyz": [
                    2.8844789675785014,
                    1.688225841719152,
                    4.285423682043688
                ],
                "label": "O",
                "properties": {}
            },
            {
                "species": [
                    {
                        "element": "O",
                        "occu": 1
                    }
                ],
                "abc": [
                    0.62428933,
                    0.79314668,
                    0.75053086
                ],
                "xyz": [
                    4.792915362421499,
                    6.473237758280847,
                    4.285423682043688
                ],
                "label": "O",
                "properties": {}
            },
            {
                "species": [
                    {
                        "element": "O",
                        "occu": 1
                    }
                ],
                "abc": [
                    0.0,
                    0.0,
                    0.5
                ],
                "xyz": [
                    0.0,
                    0.0,
                    2.854928365
                ],
                "label": "O",
                "properties": {}
            },
            {
                "species": [
                    {
                        "element": "O",
                        "occu": 1
                    }
                ],
                "abc": [
                    0.5,
                    0.5,
                    0.5
                ],
                "xyz": [
                    3.838697165,
                    4.0807318,
                    2.854928365
                ],
                "label": "O",
                "properties": {}
            },
            {
                "species": [
                    {
                        "element": "O",
                        "occu": 1
                    }
                ],
                "abc": [
                    0.37571067,
                    0.20685332,
                    0.24946914
                ],
                "xyz": [
                    2.8844789675785014,
                    1.688225841719152,
                    1.4244330479563123
                ],
                "label": "O",
                "properties": {}
            },
            {
                "species": [
                    {
                        "element": "O",
                        "occu": 1
                    }
                ],
                "abc": [
                    0.62428933,
                    0.79314668,
                    0.24946914
                ],
                "xyz": [
                    4.792915362421499,
                    6.473237758280847,
                    1.4244330479563123
                ],
                "label": "O",
                "properties": {}
            },
            {
                "species": [
                    {
                        "element": "O",
                        "occu": 1
                    }
                ],
                "abc": [
                    0.87571067,
                    0.29314668,
                    0.75053086
                ],
                "xyz": [
                    6.7231761325785016,
                    2.392505958280848,
                    4.285423682043688
                ],
                "label": "O",
                "properties": {}
            },
            {
                "species": [
                    {
                        "element": "O",
                        "occu": 1
                    }
                ],
                "abc": [
                    0.12428933,
                    0.70685332,
                    0.75053086
                ],
                "xyz": [
                    0.9542181974214989,
                    5.768957641719152,
                    4.285423682043688
                ],
                "label": "O",
                "properties": {}
            }
        ]
    },
    "spacegroup": {
        "source": "spglib",
        "symbol": "Pbam",
        "number": 55,
        "point_group": "mmm",
        "crystal_system": "orthorhombic",
        "hall": "-P 2 2ab"
    },
    "dielectric": {
        "epsilon_ionic": [
            [
                8.48548795,
                -0.0,
                0.0
            ],
            [
                -0.0,
                10.56615842,
                -0.0
            ],
            [
                0.0,
                -0.0,
                9.84979852
            ]
        ],
        "epsilon_ionic_avg": 9.633814963333334,
        "epsilon_ionic_eig": [
            8.48548795,
            10.56615842,
            9.84979852
        ],
        "epsilon_electronic": [
            [
                4.48711507,
                -0.0,
                0.0
            ],
            [
                0.0,
                4.47423527,
                0.0
            ],
            [
                0.0,
                0.0,
                4.10579677
            ]
        ],
        "epsilon_electronic_avg": 4.355715703333334,
        "epsilon_electronic_eig": [
            4.48711507,
            4.47423527,
            4.10579677
        ]
    },
    "phonon": {
        "lowest_freq": -0.03444466662267253,
        "frequency": [
            -0.03444466662267253,
            -0.026973776603616332,
            -0.02041206932650054,
            1.0417133428766354,
            2.0582697478301184,
            2.0993257460197574,
            2.7175817590734734,
            2.8367147512483513,
            3.092981193930351,
            3.480646055938292,
            3.5265391243094397,
            3.7503100637239615,
            4.177038557291827,
            4.462578048854265,
            4.47731011264773,
            4.5526722421362935,
            4.632277261703477,
            5.020189126221272,
            5.350147510288917,
            5.483872462750562,
            5.63437742079269,
            7.084385502544755,
            7.216592352777065,
            7.2484609817565815,
            7.855551008785586,
            8.002579350298186,
            8.092273515181322,
            8.194381929612847,
            8.250930646129621,
            8.400463527054391,
            8.854405148834795,
            9.047051569289447,
            9.536078525838434,
            9.884538979922109,
            9.989209903641221,
            10.156643229475012,
            10.394357073558153,
            10.571706968797177,
            10.868401650985977,
            11.095396303140118,
            11.150417806662023,
            11.269122267923398,
            11.2883103385652,
            11.567867841521034,
            11.627161377673211,
            12.13239203792436,
            12.317161828763238,
            12.399921818815269,
            12.714650313978636,
            13.183290060496134,
            13.504905320806886,
            13.788176722344312,
            13.821543635541914,
            13.887282989854825,
            14.371418847223477,
            14.427649346512943,
            14.611600903652949,
            14.625059451408134,
            14.807791800783676,
            14.871822174208226,
            15.11064834265547,
            15.177174563603826,
            15.453275265761617,
            15.883774960386496,
            16.344869046621966,
            16.525190808293065,
            16.72885775253224,
            16.864191987793845,
            17.125036412127734,
            17.596449102545492,
            17.817613302634296,
            18.18728440035745,
            18.373709104931375,
            18.455760182599548,
            18.457306773858583,
            18.95609553698385,
            20.740581216822612,
            20.74935613139332,
            20.858423088231337,
            20.995253824310307,
            21.813805921350102,
            22.39296142920387,
            22.744406677601344,
            22.88435598031888,
            22.918765280561257,
            23.11288312855952,
            25.140205467386764,
            25.794671873315316,
            27.553123499395376,
            27.734136383353572
        ]
    },
    "born_effective_charge": {
        "avg_abs_trace": 2.629201111111112,
        "tensors": [
            [
                [
                    2.61224,
                    -0.08087,
                    0.0
                ],
                [
                    0.06287,
                    2.77175,
                    0.0
                ],
                [
                    -9e-05,
                    0.00013,
                    3.11447
                ]
            ],
            [
                [
                    2.61227,
                    -0.08097,
                    0.0
                ],
                [
                    0.06286,
                    2.77203,
                    0.0
                ],
                [
                    9e-05,
                    -0.00013,
                    3.11447
                ]
            ],
            [
                [
                    2.61224,
                    0.08087,
                    0.0
                ],
                [
                    -0.06286,
                    2.77203,
                    0.0
                ],
                [
                    -9e-05,
                    -0.00013,
                    3.11447
                ]
            ],
            [
                [
                    2.61227,
                    0.08097,
                    0.0
                ],
                [
                    -0.06287,
                    2.77175,
                    0.0
                ],
                [
                    9e-05,
                    0.00013,
                    3.11447
                ]
            ],
            [
                [
                    2.79238,
                    0.33844,
                    -1e-05
                ],
                [
                    -0.12603,
                    2.76382,
                    9e-05
                ],
                [
                    0.0,
                    0.0,
                    3.08277
                ]
            ],
            [
                [
                    2.79238,
                    -0.33844,
                    1e-05
                ],
                [
                    0.12603,
                    2.76382,
                    -9e-05
                ],
                [
                    0.0,
                    0.0,
                    3.08287
                ]
            ],
            [
                [
                    2.79238,
                    0.33844,
                    1e-05
                ],
                [
                    -0.12603,
                    2.76382,
                    -9e-05
                ],
                [
                    0.0,
                    0.0,
                    3.08287
                ]
            ],
            [
                [
                    2.79238,
                    -0.33844,
                    -1e-05
                ],
                [
                    0.12603,
                    2.76382,
                    9e-05
                ],
                [
                    0.0,
                    0.0,
                    3.08277
                ]
            ],
            [
                [
                    4.53081,
                    0.84285,
                    0.0
                ],
                [
                    1.20106,
                    4.75047,
                    0.0
                ],
                [
                    -1e-05,
                    0.00012,
                    3.15969
                ]
            ],
            [
                [
                    4.53085,
                    0.8428,
                    0.0
                ],
                [
                    1.20127,
                    4.75025,
                    0.0
                ],
                [
                    1e-05,
                    -0.00012,
                    3.15969
                ]
            ],
            [
                [
                    4.53081,
                    -0.84285,
                    0.0
                ],
                [
                    -1.20127,
                    4.75025,
                    0.0
                ],
                [
                    -1e-05,
                    -0.00012,
                    3.15969
                ]
            ],
            [
                [
                    4.53085,
                    -0.8428,
                    0.0
                ],
                [
                    -1.20106,
                    4.75047,
                    0.0
                ],
                [
                    1e-05,
                    0.00012,
                    3.15969
                ]
            ],
            [
                [
                    -1.91904,
                    0.0795,
                    0.0
                ],
                [
                    0.49824,
                    -3.64543,
                    0.0
                ],
                [
                    -0.00014,
                    -3e-05,
                    -1.54259
                ]
            ],
            [
                [
                    -1.91922,
                    0.07965,
                    0.0
                ],
                [
                    0.4987,
                    -3.64497,
                    0.0
                ],
                [
                    0.00014,
                    3e-05,
                    -1.54259
                ]
            ],
            [
                [
                    -1.91904,
                    -0.0795,
                    0.0
                ],
                [
                    -0.4987,
                    -3.64497,
                    0.0
                ],
                [
                    -0.00014,
                    3e-05,
                    -1.54259
                ]
            ],
            [
                [
                    -1.91922,
                    -0.07965,
                    0.0
                ],
                [
                    -0.49824,
                    -3.64543,
                    0.0
                ],
                [
                    0.00014,
                    -3e-05,
                    -1.54259
                ]
            ],
            [
                [
                    -2.21747,
                    -0.20528,
                    0.0
                ],
                [
                    -0.35217,
                    -1.60869,
                    0.0
                ],
                [
                    -3e-05,
                    4e-05,
                    -2.23338
                ]
            ],
            [
                [
                    -2.21737,
                    -0.20532,
                    0.0
                ],
                [
                    -0.35217,
                    -1.60871,
                    0.0
                ],
                [
                    3e-05,
                    -4e-05,
                    -2.23338
                ]
            ],
            [
                [
                    -2.21747,
                    0.20528,
                    0.0
                ],
                [
                    0.35217,
                    -1.60871,
                    0.0
                ],
                [
                    -3e-05,
                    -4e-05,
                    -2.23338
                ]
            ],
            [
                [
                    -2.21737,
                    0.20532,
                    0.0
                ],
                [
                    0.35217,
                    -1.60869,
                    0.0
                ],
                [
                    3e-05,
                    4e-05,
                    -2.23338
                ]
            ],
            [
                [
                    -2.36537,
                    0.12419,
                    -0.34604
                ],
                [
                    -0.05736,
                    -1.94677,
                    0.3244
                ],
                [
                    -0.44786,
                    0.32829,
                    -2.25149
                ]
            ],
            [
                [
                    -2.36541,
                    0.1242,
                    0.34589
                ],
                [
                    -0.05737,
                    -1.94686,
                    -0.3241
                ],
                [
                    0.44786,
                    -0.32829,
                    -2.25149
                ]
            ],
            [
                [
                    -2.36537,
                    -0.12419,
                    0.34604
                ],
                [
                    0.05737,
                    -1.94686,
                    0.3241
                ],
                [
                    0.44782,
                    0.32844,
                    -2.25149
                ]
            ],
            [
                [
                    -2.36541,
                    -0.1242,
                    -0.34589
                ],
                [
                    0.05736,
                    -1.94677,
                    -0.3244
                ],
                [
                    -0.44782,
                    -0.32844,
                    -2.25149
                ]
            ],
            [
                [
                    -2.13624,
                    0.60391,
                    0.0
                ],
                [
                    0.44683,
                    -2.27709,
                    0.0
                ],
                [
                    0.0,
                    0.0,
                    -2.15607
                ]
            ],
            [
                [
                    -2.13624,
                    -0.60391,
                    0.0
                ],
                [
                    -0.44683,
                    -2.27709,
                    0.0
                ],
                [
                    0.0,
                    0.0,
                    -2.15607
                ]
            ],
            [
                [
                    -2.36537,
                    -0.12419,
                    -0.34604
                ],
                [
                    0.05737,
                    -1.94686,
                    -0.3241
                ],
                [
                    -0.44786,
                    -0.32829,
                    -2.25149
                ]
            ],
            [
                [
                    -2.36541,
                    -0.1242,
                    0.34589
                ],
                [
                    0.05736,
                    -1.94677,
                    0.3244
                ],
                [
                    0.44786,
                    0.32829,
                    -2.25149
                ]
            ],
            [
                [
                    -2.36537,
                    0.12419,
                    0.34604
                ],
                [
                    -0.05736,
                    -1.94677,
                    -0.3244
                ],
                [
                    0.44782,
                    -0.32844,
                    -2.25149
                ]
            ],
            [
                [
                    -2.36541,
                    0.1242,
                    -0.34589
                ],
                [
                    -0.05737,
                    -1.94686,
                    0.3241
                ],
                [
                    -0.44782,
                    0.32844,
                    -2.25149
                ]
            ]
        ]
    },
    "band_gap": 2.6155,
    "is_direct": true,
    "formula": "Al4Bi2O9"
}