{
    "mp_id": "mp-27253",
    "nelements": 2,
    "nsites": 10,
    "elements": [
        "Au",
        "O"
    ],
    "structure": {
        "@module": "pymatgen.core.structure",
        "@class": "Structure",
        "charge": null,
        "lattice": {
            "matrix": [
                [
                    0.0,
                    6.3734042,
                    1.94614687
                ],
                [
                    5.21742189,
                    0.0,
                    1.94614687
                ],
                [
                    5.21742189,
                    6.3734042,
                    0.0
                ]
            ],
            "a": 6.663915420845949,
            "b": 5.56857062609984,
            "c": 8.236611698679793,
            "alpha": 53.59433629680717,
            "beta": 42.26377442340578,
            "gamma": 84.14188927978708,
            "volume": 129.4294262396393
        },
        "sites": [
            {
                "species": [
                    {
                        "element": "Au",
                        "occu": 1
                    }
                ],
                "abc": [
                    0.66737034,
                    0.8422553,
                    0.42429836
                ],
                "xyz": [
                    6.6081447905436175,
                    6.95764587758854,
                    2.937953214157747
                ],
                "label": "Au",
                "properties": {}
            },
            {
                "species": [
                    {
                        "element": "Au",
                        "occu": 1
                    }
                ],
                "abc": [
                    0.8422553,
                    0.66737034,
                    0.066077
                ],
                "xyz": [
                    3.826704206878272,
                    5.789168895815661,
                    2.937953214157747
                ],
                "label": "Au",
                "properties": {}
            },
            {
                "species": [
                    {
                        "element": "Au",
                        "occu": 1
                    }
                ],
                "abc": [
                    0.183923,
                    0.82570164,
                    0.4077447
                ],
                "xyz": [
                    6.435409934456382,
                    3.77093740418434,
                    1.964877833010877
                ],
                "label": "Au",
                "properties": {}
            },
            {
                "species": [
                    {
                        "element": "Au",
                        "occu": 1
                    }
                ],
                "abc": [
                    0.82570164,
                    0.183923,
                    0.58262966
                ],
                "xyz": [
                    3.999428628121728,
                    8.97586462241146,
                    1.964877833010877
                ],
                "label": "Au",
                "properties": {}
            },
            {
                "species": [
                    {
                        "element": "O",
                        "occu": 1
                    }
                ],
                "abc": [
                    0.43648583,
                    0.43648583,
                    0.56351417
                ],
                "xyz": [
                    5.21742189,
                    6.373404200000001,
                    1.6989310637077042
                ],
                "label": "O",
                "properties": {}
            },
            {
                "species": [
                    {
                        "element": "O",
                        "occu": 1
                    }
                ],
                "abc": [
                    0.68648583,
                    0.68648583,
                    0.81351417
                ],
                "xyz": [
                    7.826132834999999,
                    9.560106300000001,
                    2.672004498707704
                ],
                "label": "O",
                "properties": {}
            },
            {
                "species": [
                    {
                        "element": "O",
                        "occu": 1
                    }
                ],
                "abc": [
                    0.30847566,
                    0.93831286,
                    0.52712425
                ],
                "xyz": [
                    7.645803656132338,
                    5.325615975913622,
                    2.4264335757499325
                ],
                "label": "O",
                "properties": {}
            },
            {
                "species": [
                    {
                        "element": "O",
                        "occu": 1
                    }
                ],
                "abc": [
                    0.93831286,
                    0.30847566,
                    0.22608623
                ],
                "xyz": [
                    2.789034906445772,
                    7.421186050682179,
                    2.4264335757499325
                ],
                "label": "O",
                "properties": {}
            },
            {
                "species": [
                    {
                        "element": "O",
                        "occu": 1
                    }
                ],
                "abc": [
                    0.72287575,
                    0.02391377,
                    0.94152434
                ],
                "xyz": [
                    5.037097928554227,
                    10.60789452408638,
                    1.4533620868968025
                ],
                "label": "O",
                "properties": {}
            },
            {
                "species": [
                    {
                        "element": "O",
                        "occu": 1
                    }
                ],
                "abc": [
                    0.02391377,
                    0.72287575,
                    0.31168714
                ],
                "xyz": [
                    5.397751068867661,
                    2.138920249317822,
                    1.4533620868968025
                ],
                "label": "O",
                "properties": {}
            }
        ]
    },
    "spacegroup": {
        "source": "spglib",
        "symbol": "Fdd2",
        "number": 43,
        "point_group": "mm2",
        "crystal_system": "orthorhombic",
        "hall": "F 2 -2d"
    },
    "dielectric": {
        "epsilon_ionic": [
            [
                1.52149733,
                0.0,
                1.671e-05
            ],
            [
                0.0,
                1.3918997,
                9.54e-06
            ],
            [
                1.671e-05,
                9.54e-06,
                0.45646594
            ]
        ],
        "epsilon_ionic_avg": 1.1232876566666665,
        "epsilon_ionic_eig": [
            1.5214973302621746,
            0.4564659396405321,
            1.3918997000972932
        ],
        "epsilon_electronic": [
            [
                9.50733031,
                0.0,
                0.0
            ],
            [
                0.0,
                8.71048208,
                0.0
            ],
            [
                0.0,
                0.0,
                5.90038971
            ]
        ],
        "epsilon_electronic_avg": 8.0394007,
        "epsilon_electronic_eig": [
            9.50733031,
            8.71048208,
            5.90038971
        ]
    },
    "phonon": {
        "lowest_freq": -0.02136350276174665,
        "frequency": [
            -0.02136350276174665,
            -0.015008592136948357,
            -0.007193616019785792,
            2.703574279241245,
            3.4161346556814665,
            3.5254607693627693,
            4.074513792444758,
            4.211721550467929,
            4.968642067824149,
            5.196764090041096,
            5.6693896717688395,
            6.110060722520083,
            8.034260154402647,
            8.630942340150094,
            9.99246533890327,
            10.916754868311292,
            11.541167127907704,
            12.095729488568963,
            16.04962347994863,
            16.242524624878698,
            16.653117303041494,
            16.68906940046263,
            16.856070530283937,
            17.566693543744638,
            18.064285263961033,
            18.166266966678165,
            18.34171265920725,
            18.34275389818725,
            18.3961785652596,
            18.567771702594232
        ]
    },
    "born_effective_charge": {
        "avg_abs_trace": 1.580182,
        "tensors": [
            [
                [
                    2.38179,
                    -0.59988,
                    0.64397
                ],
                [
                    -0.83338,
                    2.24388,
                    0.81617
                ],
                [
                    0.31434,
                    0.75672,
                    1.30005
                ]
            ],
            [
                [
                    2.38166,
                    -0.59967,
                    -0.64378
                ],
                [
                    -0.83343,
                    2.24393,
                    -0.8161
                ],
                [
                    -0.31434,
                    -0.75672,
                    1.30005
                ]
            ],
            [
                [
                    2.38166,
                    0.59967,
                    -0.64378
                ],
                [
                    0.83338,
                    2.24388,
                    0.81617
                ],
                [
                    -0.31434,
                    0.75672,
                    1.30005
                ]
            ],
            [
                [
                    2.38179,
                    0.59988,
                    0.64397
                ],
                [
                    0.83343,
                    2.24393,
                    -0.8161
                ],
                [
                    0.31434,
                    -0.75672,
                    1.30005
                ]
            ],
            [
                [
                    -1.77452,
                    -0.35919,
                    -0.00013
                ],
                [
                    -0.39823,
                    -0.86025,
                    -7e-05
                ],
                [
                    0.0,
                    0.0,
                    -1.05921
                ]
            ],
            [
                [
                    -1.77452,
                    0.35919,
                    -0.00013
                ],
                [
                    0.39823,
                    -0.86025,
                    -7e-05
                ],
                [
                    -0.0,
                    0.0,
                    -1.05921
                ]
            ],
            [
                [
                    -1.49452,
                    -0.27852,
                    0.6588
                ],
                [
                    -0.25786,
                    -1.81375,
                    -0.32969
                ],
                [
                    0.32137,
                    -0.35766,
                    -0.77045
                ]
            ],
            [
                [
                    -1.49441,
                    -0.27861,
                    -0.65886
                ],
                [
                    -0.25789,
                    -1.81381,
                    0.32969
                ],
                [
                    -0.32137,
                    0.35766,
                    -0.77045
                ]
            ],
            [
                [
                    -1.49452,
                    0.27852,
                    0.6588
                ],
                [
                    0.25789,
                    -1.81381,
                    0.32969
                ],
                [
                    0.32137,
                    0.35766,
                    -0.77045
                ]
            ],
            [
                [
                    -1.49441,
                    0.27861,
                    -0.65886
                ],
                [
                    0.25786,
                    -1.81375,
                    -0.32969
                ],
                [
                    -0.32137,
                    -0.35766,
                    -0.77045
                ]
            ]
        ]
    },
    "band_gap": 1.1405000000000003,
    "is_direct": false,
    "formula": "Au2O3"
}