{
    "mp_id": "mp-20496",
    "nelements": 3,
    "nsites": 14,
    "elements": [
        "Ga",
        "O",
        "Pb"
    ],
    "structure": {
        "@module": "pymatgen.core.structure",
        "@class": "Structure",
        "charge": null,
        "lattice": {
            "matrix": [
                [
                    8.53608339,
                    0.0,
                    0.0
                ],
                [
                    0.0,
                    4.6729164,
                    2.62379084
                ],
                [
                    0.0,
                    -4.6729164,
                    2.62379084
                ]
            ],
            "a": 8.53608339,
            "b": 5.359144153076764,
            "c": 5.359144153076764,
            "alpha": 121.37254315092085,
            "beta": 90.0,
            "gamma": 90.0,
            "volume": 209.3176584153994
        },
        "sites": [
            {
                "species": [
                    {
                        "element": "Ga",
                        "occu": 1
                    }
                ],
                "abc": [
                    0.55207658,
                    0.28974411,
                    0.63660312
                ],
                "xyz": [
                    4.712571724546007,
                    -1.6208431563167636,
                    2.4305413767333732
                ],
                "label": "Ga",
                "properties": {}
            },
            {
                "species": [
                    {
                        "element": "Ga",
                        "occu": 1
                    }
                ],
                "abc": [
                    0.44792342,
                    0.63660312,
                    0.28974411
                ],
                "xyz": [
                    3.823511665453994,
                    1.6208431563167636,
                    2.4305413767333732
                ],
                "label": "Ga",
                "properties": {}
            },
            {
                "species": [
                    {
                        "element": "Ga",
                        "occu": 1
                    }
                ],
                "abc": [
                    0.94792342,
                    0.28974411,
                    0.63660312
                ],
                "xyz": [
                    8.091553360453993,
                    -1.6208431563167636,
                    2.4305413767333732
                ],
                "label": "Ga",
                "properties": {}
            },
            {
                "species": [
                    {
                        "element": "Ga",
                        "occu": 1
                    }
                ],
                "abc": [
                    0.05207658,
                    0.63660312,
                    0.28974411
                ],
                "xyz": [
                    0.4445300295460062,
                    1.6208431563167636,
                    2.4305413767333732
                ],
                "label": "Ga",
                "properties": {}
            },
            {
                "species": [
                    {
                        "element": "Pb",
                        "occu": 1
                    }
                ],
                "abc": [
                    0.75,
                    0.9794442,
                    0.02811795
                ],
                "xyz": [
                    6.4020625424999995,
                    4.4454680353755,
                    2.6436323399007056
                ],
                "label": "Pb",
                "properties": {}
            },
            {
                "species": [
                    {
                        "element": "Pb",
                        "occu": 1
                    }
                ],
                "abc": [
                    0.25,
                    0.02811795,
                    0.9794442
                ],
                "xyz": [
                    2.1340208475,
                    -4.4454680353755,
                    2.6436323399007056
                ],
                "label": "Pb",
                "properties": {}
            },
            {
                "species": [
                    {
                        "element": "O",
                        "occu": 1
                    }
                ],
                "abc": [
                    0.75,
                    0.12496103,
                    0.5132612
                ],
                "xyz": [
                    6.4020625424999995,
                    -1.8144942325157882,
                    1.674561640958373
                ],
                "label": "O",
                "properties": {}
            },
            {
                "species": [
                    {
                        "element": "O",
                        "occu": 1
                    }
                ],
                "abc": [
                    0.25,
                    0.5132612,
                    0.12496103
                ],
                "xyz": [
                    2.1340208475,
                    1.8144942325157882,
                    1.674561640958373
                ],
                "label": "O",
                "properties": {}
            },
            {
                "species": [
                    {
                        "element": "O",
                        "occu": 1
                    }
                ],
                "abc": [
                    0.5,
                    0.31783518,
                    0.31783518
                ],
                "xyz": [
                    4.268041695,
                    0.0,
                    1.6678660678275024
                ],
                "label": "O",
                "properties": {}
            },
            {
                "species": [
                    {
                        "element": "O",
                        "occu": 1
                    }
                ],
                "abc": [
                    0.0,
                    0.31783518,
                    0.31783518
                ],
                "xyz": [
                    0.0,
                    0.0,
                    1.6678660678275024
                ],
                "label": "O",
                "properties": {}
            },
            {
                "species": [
                    {
                        "element": "O",
                        "occu": 1
                    }
                ],
                "abc": [
                    0.56104251,
                    0.63184783,
                    0.99277658
                ],
                "xyz": [
                    4.78910565069491,
                    -1.6865898751065003,
                    4.262674645398404
                ],
                "label": "O",
                "properties": {}
            },
            {
                "species": [
                    {
                        "element": "O",
                        "occu": 1
                    }
                ],
                "abc": [
                    0.43895749,
                    0.99277658,
                    0.63184783
                ],
                "xyz": [
                    3.746977739305091,
                    1.6865898751065003,
                    4.262674645398404
                ],
                "label": "O",
                "properties": {}
            },
            {
                "species": [
                    {
                        "element": "O",
                        "occu": 1
                    }
                ],
                "abc": [
                    0.06104251,
                    0.99277658,
                    0.63184783
                ],
                "xyz": [
                    0.5210639556949089,
                    1.6865898751065003,
                    4.262674645398404
                ],
                "label": "O",
                "properties": {}
            },
            {
                "species": [
                    {
                        "element": "O",
                        "occu": 1
                    }
                ],
                "abc": [
                    0.93895749,
                    0.63184783,
                    0.99277658
                ],
                "xyz": [
                    8.01501943430509,
                    -1.6865898751065003,
                    4.262674645398404
                ],
                "label": "O",
                "properties": {}
            }
        ]
    },
    "spacegroup": {
        "source": "spglib",
        "symbol": "Ama2",
        "number": 40,
        "point_group": "mm2",
        "crystal_system": "orthorhombic",
        "hall": "A 2 -2a"
    },
    "dielectric": {
        "epsilon_ionic": [
            [
                44.96162029,
                0.0,
                -1.824e-05
            ],
            [
                0.0,
                9.3960625,
                -9.404e-05
            ],
            [
                -1.824e-05,
                -9.404e-05,
                5.05440589
            ]
        ],
        "epsilon_ionic_avg": 19.804029560000007,
        "epsilon_ionic_eig": [
            44.961620290008355,
            5.054405887954763,
            9.396062502036896
        ],
        "epsilon_electronic": [
            [
                4.18384827,
                0.0,
                0.0
            ],
            [
                0.0,
                4.1295341,
                0.0
            ],
            [
                0.0,
                0.0,
                4.2290336
            ]
        ],
        "epsilon_electronic_avg": 4.180805323333334,
        "epsilon_electronic_eig": [
            4.18384827,
            4.1295341,
            4.2290336
        ]
    },
    "phonon": {
        "lowest_freq": -0.09287697668183545,
        "frequency": [
            -0.09287697668183545,
            -0.03759702644279251,
            -0.032468761040025024,
            0.6338687504724274,
            1.4903508293412266,
            2.3575408068295043,
            2.458192173186077,
            2.6323117661517075,
            2.6548953995193405,
            3.2227590123246705,
            3.683551015626366,
            3.695331342765523,
            4.643593322195585,
            5.294872616281196,
            5.381683866583417,
            5.7646284727756205,
            6.119615821350259,
            6.790010043791797,
            7.038123273127669,
            7.141666252833267,
            7.43978096876339,
            7.57917143488175,
            8.02959473831161,
            8.949465110686708,
            9.698997273104853,
            10.080043683421309,
            11.72315376544083,
            11.816947342975109,
            12.880842450327929,
            12.884397331696299,
            14.852420354607386,
            15.311816717867693,
            15.39244741966831,
            16.568842190910928,
            19.166441130980193,
            19.358124428318543,
            19.620469220002857,
            19.81500652683283,
            19.95024936922753,
            21.82054622250511,
            21.85609613740359,
            22.48585145622755
        ]
    },
    "born_effective_charge": {
        "avg_abs_trace": 2.458210476190476,
        "tensors": [
            [
                [
                    2.56675,
                    -0.02155,
                    -0.03626
                ],
                [
                    -0.11826,
                    2.80313,
                    -0.14446
                ],
                [
                    0.0377,
                    -0.07979,
                    2.97004
                ]
            ],
            [
                [
                    2.56674,
                    -0.02155,
                    0.03627
                ],
                [
                    -0.11824,
                    2.80318,
                    0.14458
                ],
                [
                    -0.0377,
                    0.07979,
                    2.97004
                ]
            ],
            [
                [
                    2.56674,
                    0.02155,
                    0.03627
                ],
                [
                    0.11826,
                    2.80313,
                    -0.14446
                ],
                [
                    -0.0377,
                    -0.07979,
                    2.97004
                ]
            ],
            [
                [
                    2.56675,
                    0.02155,
                    -0.03626
                ],
                [
                    0.11824,
                    2.80318,
                    0.14458
                ],
                [
                    0.0377,
                    0.07979,
                    2.97004
                ]
            ],
            [
                [
                    3.59063,
                    -2e-05,
                    -1e-05
                ],
                [
                    0.0,
                    2.7997,
                    0.10889
                ],
                [
                    0.0,
                    -0.0027,
                    2.74088
                ]
            ],
            [
                [
                    3.59063,
                    2e-05,
                    -1e-05
                ],
                [
                    0.0,
                    2.79992,
                    -0.10919
                ],
                [
                    -0.0,
                    0.0027,
                    2.74088
                ]
            ],
            [
                [
                    -2.64731,
                    1e-05,
                    0.0
                ],
                [
                    0.0,
                    -1.93299,
                    0.70639
                ],
                [
                    -0.0,
                    0.75282,
                    -2.04332
                ]
            ],
            [
                [
                    -2.64731,
                    -1e-05,
                    0.0
                ],
                [
                    0.0,
                    -1.93317,
                    -0.7061
                ],
                [
                    0.0,
                    -0.75282,
                    -2.04332
                ]
            ],
            [
                [
                    -2.13743,
                    -0.46284,
                    0.0
                ],
                [
                    -0.77276,
                    -2.40072,
                    -4e-05
                ],
                [
                    0.0,
                    -0.0,
                    -1.91846
                ]
            ],
            [
                [
                    -2.13743,
                    0.46284,
                    0.0
                ],
                [
                    0.77276,
                    -2.40072,
                    -4e-05
                ],
                [
                    0.0,
                    -0.0,
                    -1.91846
                ]
            ],
            [
                [
                    -1.96969,
                    0.8191,
                    -0.02211
                ],
                [
                    0.62776,
                    -2.0363,
                    0.07591
                ],
                [
                    0.14398,
                    -0.19064,
                    -2.35959
                ]
            ],
            [
                [
                    -1.9697,
                    0.81908,
                    0.02211
                ],
                [
                    0.62745,
                    -2.03603,
                    -0.07598
                ],
                [
                    -0.14398,
                    0.19064,
                    -2.35959
                ]
            ],
            [
                [
                    -1.96969,
                    -0.8191,
                    -0.02211
                ],
                [
                    -0.62745,
                    -2.03603,
                    -0.07598
                ],
                [
                    0.14398,
                    0.19064,
                    -2.35959
                ]
            ],
            [
                [
                    -1.9697,
                    -0.81908,
                    0.02211
                ],
                [
                    -0.62776,
                    -2.0363,
                    0.07591
                ],
                [
                    -0.14398,
                    -0.19064,
                    -2.35959
                ]
            ]
        ]
    },
    "band_gap": 3.4179999999999997,
    "is_direct": false,
    "formula": "Ga2PbO4"
}