{
    "mp_id": "mp-23127",
    "nelements": 4,
    "nsites": 10,
    "elements": [
        "Ba",
        "Bi",
        "O",
        "Sb"
    ],
    "structure": {
        "@module": "pymatgen.core.structure",
        "@class": "Structure",
        "charge": null,
        "lattice": {
            "matrix": [
                [
                    5.22500257,
                    -3.01510413,
                    0.00030639
                ],
                [
                    5.22500257,
                    3.01510413,
                    0.00030639
                ],
                [
                    -3.52294696,
                    0.0,
                    4.97589143
                ]
            ],
            "a": 6.032537183070196,
            "b": 6.032537183070196,
            "c": 6.096773803096248,
            "alpha": 120.02946038100907,
            "beta": 120.02946038100907,
            "gamma": 59.974460099642194,
            "volume": 156.78616796623842
        },
        "sites": [
            {
                "species": [
                    {
                        "element": "Ba",
                        "occu": 1
                    }
                ],
                "abc": [
                    0.75131229,
                    0.75131229,
                    0.25523636
                ],
                "xyz": [
                    6.952033133701705,
                    0.0,
                    1.270488805493461
                ],
                "label": "Ba",
                "properties": {}
            },
            {
                "species": [
                    {
                        "element": "Ba",
                        "occu": 1
                    }
                ],
                "abc": [
                    0.24868771,
                    0.24868771,
                    0.74476364
                ],
                "xyz": [
                    -0.02497495370170455,
                    0.0,
                    3.7060154045065388
                ],
                "label": "Ba",
                "properties": {}
            },
            {
                "species": [
                    {
                        "element": "Bi",
                        "occu": 1
                    }
                ],
                "abc": [
                    0.0,
                    0.0,
                    0.0
                ],
                "xyz": [
                    0.0,
                    0.0,
                    0.0
                ],
                "label": "Bi",
                "properties": {}
            },
            {
                "species": [
                    {
                        "element": "Sb",
                        "occu": 1
                    }
                ],
                "abc": [
                    0.5,
                    0.5,
                    0.5
                ],
                "xyz": [
                    3.4635290899999998,
                    0.0,
                    2.488252105
                ],
                "label": "Sb",
                "properties": {}
            },
            {
                "species": [
                    {
                        "element": "O",
                        "occu": 1
                    }
                ],
                "abc": [
                    0.23312329,
                    0.70260947,
                    0.69811883
                ],
                "xyz": [
                    2.429770465965936,
                    1.4155497202959233,
                    3.474050202478963
                ],
                "label": "O",
                "properties": {}
            },
            {
                "species": [
                    {
                        "element": "O",
                        "occu": 1
                    }
                ],
                "abc": [
                    0.29739053,
                    0.76687671,
                    0.30188117
                ],
                "xyz": [
                    4.497287714034063,
                    1.4155497202959233,
                    1.5024540075210366
                ],
                "label": "O",
                "properties": {}
            },
            {
                "species": [
                    {
                        "element": "O",
                        "occu": 1
                    }
                ],
                "abc": [
                    0.76687671,
                    0.29739053,
                    0.30188117
                ],
                "xyz": [
                    4.497287714034063,
                    -1.4155497202959233,
                    1.5024540075210366
                ],
                "label": "O",
                "properties": {}
            },
            {
                "species": [
                    {
                        "element": "O",
                        "occu": 1
                    }
                ],
                "abc": [
                    0.70260947,
                    0.23312329,
                    0.69811883
                ],
                "xyz": [
                    2.429770465965936,
                    -1.4155497202959233,
                    3.474050202478963
                ],
                "label": "O",
                "properties": {}
            },
            {
                "species": [
                    {
                        "element": "O",
                        "occu": 1
                    }
                ],
                "abc": [
                    0.26833536,
                    0.26833536,
                    0.20903094
                ],
                "xyz": [
                    2.067700976624808,
                    0.0,
                    1.040279693492745
                ],
                "label": "O",
                "properties": {}
            },
            {
                "species": [
                    {
                        "element": "O",
                        "occu": 1
                    }
                ],
                "abc": [
                    0.73166464,
                    0.73166464,
                    0.79096906
                ],
                "xyz": [
                    4.8593572033751915,
                    0.0,
                    3.936224516507255
                ],
                "label": "O",
                "properties": {}
            }
        ]
    },
    "spacegroup": {
        "source": "spglib",
        "symbol": "C2/m",
        "number": 12,
        "point_group": "2/m",
        "crystal_system": "monoclinic",
        "hall": "-C 2y"
    },
    "dielectric": {
        "epsilon_ionic": [
            [
                20.48740916,
                -2e-08,
                1.18966039
            ],
            [
                -2e-08,
                24.98524703,
                5e-08
            ],
            [
                1.18966039,
                5e-08,
                19.87906611
            ]
        ],
        "epsilon_ionic_avg": 21.783907433333336,
        "epsilon_ionic_eig": [
            18.95530760435665,
            21.41116766564335,
            24.985247030000007
        ],
        "epsilon_electronic": [
            [
                5.42223124,
                0.0,
                -0.05281668
            ],
            [
                0.0,
                5.39527812,
                0.0
            ],
            [
                -0.05281501,
                0.0,
                5.5657093
            ]
        ],
        "epsilon_electronic_avg": 5.461072886666667,
        "epsilon_electronic_eig": [
            5.404886029487395,
            5.583054510512605,
            5.39527812
        ]
    },
    "phonon": {
        "lowest_freq": -0.01570174018433594,
        "frequency": [
            -0.01570174018433594,
            -0.011841991618679158,
            -0.007475278933436634,
            1.4330803320297822,
            1.5757529421967382,
            3.0255496542654656,
            3.032890178311807,
            3.0510486999893973,
            3.2101775813804716,
            3.223346988575384,
            3.508212758565143,
            4.4280726394438386,
            4.505511628803363,
            4.801075263879099,
            4.906246786653373,
            5.920381355876012,
            6.326086325393407,
            7.4332336217025805,
            8.704509149652274,
            8.853198565254424,
            9.133421738678546,
            9.553343478980723,
            9.758656184122563,
            10.309760746631545,
            15.418589072764581,
            15.440759887385179,
            15.699249327350994,
            15.948772438429225,
            15.971487147998824,
            20.14413294749976
        ]
    },
    "born_effective_charge": {
        "avg_abs_trace": 3.2195023333333332,
        "tensors": [
            [
                [
                    2.68165,
                    0.0,
                    -0.095
                ],
                [
                    1e-05,
                    2.69474,
                    0.0001
                ],
                [
                    -0.07139,
                    -0.0,
                    2.77997
                ]
            ],
            [
                [
                    2.68155,
                    0.0,
                    -0.09472
                ],
                [
                    -1e-05,
                    2.69474,
                    -0.0001
                ],
                [
                    -0.07107,
                    -0.0,
                    2.77978
                ]
            ],
            [
                [
                    4.80137,
                    0.0,
                    -0.26517
                ],
                [
                    -0.0,
                    4.66468,
                    0.0
                ],
                [
                    0.19568,
                    -0.0,
                    5.03198
                ]
            ],
            [
                [
                    5.84968,
                    0.0,
                    0.6216
                ],
                [
                    -0.0,
                    5.89359,
                    0.0
                ],
                [
                    -0.60271,
                    -0.0,
                    5.73881
                ]
            ],
            [
                [
                    -2.34365,
                    0.72451,
                    0.51076
                ],
                [
                    0.68931,
                    -3.06132,
                    -0.91968
                ],
                [
                    0.66548,
                    -0.88154,
                    -2.63484
                ]
            ],
            [
                [
                    -2.34365,
                    -0.72441,
                    0.5109
                ],
                [
                    -0.68931,
                    -3.06132,
                    0.91968
                ],
                [
                    0.66507,
                    0.88094,
                    -2.63497
                ]
            ],
            [
                [
                    -2.34365,
                    0.72441,
                    0.5109
                ],
                [
                    0.68913,
                    -3.06104,
                    -0.91978
                ],
                [
                    0.66507,
                    -0.88094,
                    -2.63497
                ]
            ],
            [
                [
                    -2.34365,
                    -0.72451,
                    0.51076
                ],
                [
                    -0.68913,
                    -3.06104,
                    0.91978
                ],
                [
                    0.66548,
                    0.88154,
                    -2.63484
                ]
            ],
            [
                [
                    -3.31995,
                    0.0,
                    -1.10537
                ],
                [
                    -0.00015,
                    -1.85151,
                    -0.00017
                ],
                [
                    -1.05571,
                    -0.0,
                    -2.89506
                ]
            ],
            [
                [
                    -3.31971,
                    0.0,
                    -1.10465
                ],
                [
                    0.00015,
                    -1.85151,
                    0.00017
                ],
                [
                    -1.05589,
                    -0.0,
                    -2.89585
                ]
            ]
        ]
    },
    "band_gap": 1.7270000000000003,
    "is_direct": false,
    "formula": "Ba2BiSbO6"
}