{
    "mp_id": "mp-27227",
    "nelements": 3,
    "nsites": 12,
    "elements": [
        "Ag",
        "Li",
        "O"
    ],
    "structure": {
        "@module": "pymatgen.core.structure",
        "@class": "Structure",
        "charge": null,
        "lattice": {
            "matrix": [
                [
                    -2.91986414,
                    4.94003348,
                    2.79166238
                ],
                [
                    2.91986414,
                    -4.94003348,
                    2.79166238
                ],
                [
                    2.91986414,
                    4.94003348,
                    -2.79166238
                ]
            ],
            "a": 6.38145094970463,
            "b": 6.38145094970463,
            "c": 6.38145094970463,
            "alpha": 125.54111648847979,
            "beta": 78.5486667235759,
            "gamma": 128.11548184807927,
            "volume": 161.07028313586846
        },
        "sites": [
            {
                "species": [
                    {
                        "element": "Li",
                        "occu": 1
                    }
                ],
                "abc": [
                    0.75,
                    0.25,
                    0.5
                ],
                "xyz": [
                    -2.220446049250313e-16,
                    4.94003348,
                    1.39583119
                ],
                "label": "Li",
                "properties": {}
            },
            {
                "species": [
                    {
                        "element": "Li",
                        "occu": 1
                    }
                ],
                "abc": [
                    0.25,
                    0.75,
                    0.5
                ],
                "xyz": [
                    2.9198641400000005,
                    0.0,
                    1.39583119
                ],
                "label": "Li",
                "properties": {}
            },
            {
                "species": [
                    {
                        "element": "Ag",
                        "occu": 1
                    }
                ],
                "abc": [
                    0.5,
                    0.0,
                    0.0
                ],
                "xyz": [
                    -1.45993207,
                    2.47001674,
                    1.39583119
                ],
                "label": "Ag",
                "properties": {}
            },
            {
                "species": [
                    {
                        "element": "Ag",
                        "occu": 1
                    }
                ],
                "abc": [
                    0.0,
                    0.0,
                    0.5
                ],
                "xyz": [
                    1.45993207,
                    2.47001674,
                    -1.39583119
                ],
                "label": "Ag",
                "properties": {}
            },
            {
                "species": [
                    {
                        "element": "Ag",
                        "occu": 1
                    }
                ],
                "abc": [
                    0.0,
                    0.5,
                    0.0
                ],
                "xyz": [
                    1.45993207,
                    -2.47001674,
                    1.39583119
                ],
                "label": "Ag",
                "properties": {}
            },
            {
                "species": [
                    {
                        "element": "Ag",
                        "occu": 1
                    }
                ],
                "abc": [
                    0.5,
                    0.5,
                    0.0
                ],
                "xyz": [
                    0.0,
                    0.0,
                    2.79166238
                ],
                "label": "Ag",
                "properties": {}
            },
            {
                "species": [
                    {
                        "element": "Ag",
                        "occu": 1
                    }
                ],
                "abc": [
                    0.0,
                    0.0,
                    0.0
                ],
                "xyz": [
                    0.0,
                    0.0,
                    0.0
                ],
                "label": "Ag",
                "properties": {}
            },
            {
                "species": [
                    {
                        "element": "Ag",
                        "occu": 1
                    }
                ],
                "abc": [
                    0.5,
                    0.5,
                    0.5
                ],
                "xyz": [
                    1.45993207,
                    2.47001674,
                    1.39583119
                ],
                "label": "Ag",
                "properties": {}
            },
            {
                "species": [
                    {
                        "element": "O",
                        "occu": 1
                    }
                ],
                "abc": [
                    0.9025738,
                    0.31934691,
                    0.22192071
                ],
                "xyz": [
                    -1.0549649585423855,
                    3.977456100341648,
                    2.79166238
                ],
                "label": "O",
                "properties": {}
            },
            {
                "species": [
                    {
                        "element": "O",
                        "occu": 1
                    }
                ],
                "abc": [
                    0.4025738,
                    0.18065309,
                    0.5832279
                ],
                "xyz": [
                    1.0549679076051666,
                    3.9774610897754634,
                    -2.819579003832118e-06
                ],
                "label": "O",
                "properties": {}
            },
            {
                "species": [
                    {
                        "element": "O",
                        "occu": 1
                    }
                ],
                "abc": [
                    0.0974262,
                    0.68065309,
                    0.77807929
                ],
                "xyz": [
                    3.9748290985423855,
                    0.9625773796583523,
                    0.0
                ],
                "label": "O",
                "properties": {}
            },
            {
                "species": [
                    {
                        "element": "O",
                        "occu": 1
                    }
                ],
                "abc": [
                    0.5974262,
                    0.81934691,
                    0.4167721
                ],
                "xyz": [
                    1.8648962323948335,
                    0.9625723902245369,
                    2.791665199579004
                ],
                "label": "O",
                "properties": {}
            }
        ]
    },
    "spacegroup": {
        "source": "spglib",
        "symbol": "Ibam",
        "number": 72,
        "point_group": "mmm",
        "crystal_system": "orthorhombic",
        "hall": "-I 2 2c"
    },
    "dielectric": {
        "epsilon_ionic": [
            [
                3.26551006,
                1e-08,
                -3e-08
            ],
            [
                1e-08,
                2.25323967,
                -1e-08
            ],
            [
                -3e-08,
                -1e-08,
                3.14083083
            ]
        ],
        "epsilon_ionic_avg": 2.8865268533333333,
        "epsilon_ionic_eig": [
            3.265510060000007,
            3.1408308299999934,
            2.2532396699999997
        ],
        "epsilon_electronic": [
            [
                6.27544383,
                0.0,
                0.0
            ],
            [
                0.0,
                6.72377708,
                0.0
            ],
            [
                0.0,
                0.0,
                6.69211203
            ]
        ],
        "epsilon_electronic_avg": 6.563777646666666,
        "epsilon_electronic_eig": [
            6.27544383,
            6.72377708,
            6.69211203
        ]
    },
    "phonon": {
        "lowest_freq": -0.021833324724568382,
        "frequency": [
            -0.021833324724568382,
            -0.02169398749707122,
            -0.020064999875692303,
            1.2183074245599008,
            1.2716920653829884,
            1.3968137956300073,
            1.7320341583763788,
            1.9852164465544468,
            2.27115612467585,
            2.668901342523787,
            2.6801684482237205,
            2.702664202413814,
            2.767957105571754,
            3.235300989799087,
            3.7090283705198845,
            4.237668444048823,
            4.276648292445294,
            4.310214626218417,
            8.525342337124881,
            8.948861590749406,
            9.02156172263532,
            10.135315492756876,
            10.854067299796665,
            10.972282207215892,
            11.294525341794174,
            11.785117186412146,
            11.976087822438341,
            12.017733460735599,
            12.770496482020237,
            12.892053210250904,
            13.13481773965608,
            13.337116224645236,
            13.35643136785224,
            13.667120992826568,
            14.247956907033558,
            14.305639329172303
        ]
    },
    "born_effective_charge": {
        "avg_abs_trace": 1.2902672222222222,
        "tensors": [
            [
                [
                    1.1923,
                    -0.0,
                    0.0
                ],
                [
                    -0.0,
                    1.16544,
                    0.0
                ],
                [
                    0.0,
                    0.0,
                    1.09019
                ]
            ],
            [
                [
                    1.1923,
                    -0.0,
                    0.0
                ],
                [
                    -0.0,
                    1.16544,
                    0.0
                ],
                [
                    0.0,
                    0.0,
                    1.09019
                ]
            ],
            [
                [
                    0.56148,
                    -0.00753,
                    -0.10251
                ],
                [
                    0.16271,
                    0.94279,
                    0.5832
                ],
                [
                    0.05918,
                    0.65542,
                    1.17932
                ]
            ],
            [
                [
                    0.56148,
                    0.00753,
                    0.10251
                ],
                [
                    -0.16271,
                    0.94279,
                    0.5832
                ],
                [
                    -0.05918,
                    0.65542,
                    1.17932
                ]
            ],
            [
                [
                    0.56148,
                    -0.00753,
                    0.10251
                ],
                [
                    0.16271,
                    0.94279,
                    -0.5832
                ],
                [
                    -0.05918,
                    -0.65542,
                    1.17932
                ]
            ],
            [
                [
                    1.32369,
                    0.44729,
                    0.0
                ],
                [
                    0.79504,
                    0.85538,
                    0.0
                ],
                [
                    0.0,
                    0.0,
                    0.61823
                ]
            ],
            [
                [
                    1.32369,
                    -0.44729,
                    0.0
                ],
                [
                    -0.79504,
                    0.85538,
                    -0.0
                ],
                [
                    0.0,
                    0.0,
                    0.61823
                ]
            ],
            [
                [
                    0.56148,
                    0.00753,
                    -0.10251
                ],
                [
                    -0.16271,
                    0.94279,
                    -0.5832
                ],
                [
                    0.05918,
                    -0.65542,
                    1.17932
                ]
            ],
            [
                [
                    -1.8193,
                    0.24993,
                    0.0
                ],
                [
                    0.19611,
                    -1.95314,
                    0.0
                ],
                [
                    -0.0002,
                    -0.0002,
                    -2.03353
                ]
            ],
            [
                [
                    -1.81964,
                    -0.24961,
                    0.0
                ],
                [
                    -0.19611,
                    -1.95314,
                    -0.0
                ],
                [
                    0.0002,
                    -0.0002,
                    -2.03353
                ]
            ],
            [
                [
                    -1.81964,
                    0.24961,
                    -0.0
                ],
                [
                    0.19606,
                    -1.95326,
                    -0.0
                ],
                [
                    0.0002,
                    0.0002,
                    -2.03353
                ]
            ],
            [
                [
                    -1.8193,
                    -0.24993,
                    0.0
                ],
                [
                    -0.19606,
                    -1.95326,
                    0.0
                ],
                [
                    -0.0002,
                    0.0002,
                    -2.03353
                ]
            ]
        ]
    },
    "band_gap": 1.0004,
    "is_direct": true,
    "formula": "LiAg3O2"
}