{
    "mp_id": "mp-29524",
    "nelements": 3,
    "nsites": 28,
    "elements": [
        "Bi",
        "K",
        "O"
    ],
    "structure": {
        "@module": "pymatgen.core.structure",
        "@class": "Structure",
        "charge": null,
        "lattice": {
            "matrix": [
                [
                    -5.37857601,
                    5.37857601,
                    5.37857601
                ],
                [
                    5.37857601,
                    -5.37857601,
                    5.37857601
                ],
                [
                    5.37857601,
                    5.37857601,
                    -5.37857601
                ]
            ],
            "a": 9.31596692169109,
            "b": 9.31596692169109,
            "c": 9.31596692169109,
            "alpha": 109.47122063449069,
            "beta": 109.47122063449069,
            "gamma": 109.47122063449069,
            "volume": 622.3890204659579
        },
        "sites": [
            {
                "species": [
                    {
                        "element": "K",
                        "occu": 1
                    }
                ],
                "abc": [
                    0.72885524,
                    0.24482661,
                    0.72885524
                ],
                "xyz": [
                    1.3168185311556257,
                    6.523588086097959,
                    1.3168185311556257
                ],
                "label": "K",
                "properties": {}
            },
            {
                "species": [
                    {
                        "element": "K",
                        "occu": 1
                    }
                ],
                "abc": [
                    0.27114476,
                    0.0,
                    0.51597137
                ],
                "xyz": [
                    1.3168185311556264,
                    4.233563933902041,
                    -1.3168185311556264
                ],
                "label": "K",
                "properties": {}
            },
            {
                "species": [
                    {
                        "element": "K",
                        "occu": 1
                    }
                ],
                "abc": [
                    0.0,
                    0.27114476,
                    0.51597137
                ],
                "xyz": [
                    4.233563933902041,
                    1.3168185311556264,
                    -1.3168185311556264
                ],
                "label": "K",
                "properties": {}
            },
            {
                "species": [
                    {
                        "element": "K",
                        "occu": 1
                    }
                ],
                "abc": [
                    0.48402863,
                    0.48402863,
                    0.75517339
                ],
                "xyz": [
                    4.061757478844374,
                    4.061757478844374,
                    1.1450120760979585
                ],
                "label": "K",
                "properties": {}
            },
            {
                "species": [
                    {
                        "element": "K",
                        "occu": 1
                    }
                ],
                "abc": [
                    0.0,
                    0.51597137,
                    0.27114476
                ],
                "xyz": [
                    4.233563933902041,
                    -1.3168185311556264,
                    1.3168185311556264
                ],
                "label": "K",
                "properties": {}
            },
            {
                "species": [
                    {
                        "element": "K",
                        "occu": 1
                    }
                ],
                "abc": [
                    0.51597137,
                    0.0,
                    0.27114476
                ],
                "xyz": [
                    -1.3168185311556264,
                    4.233563933902041,
                    1.3168185311556264
                ],
                "label": "K",
                "properties": {}
            },
            {
                "species": [
                    {
                        "element": "K",
                        "occu": 1
                    }
                ],
                "abc": [
                    0.48402863,
                    0.75517339,
                    0.48402863
                ],
                "xyz": [
                    4.061757478844374,
                    1.1450120760979585,
                    4.061757478844374
                ],
                "label": "K",
                "properties": {}
            },
            {
                "species": [
                    {
                        "element": "K",
                        "occu": 1
                    }
                ],
                "abc": [
                    0.27114476,
                    0.51597137,
                    0.0
                ],
                "xyz": [
                    1.3168185311556264,
                    -1.3168185311556264,
                    4.233563933902041
                ],
                "label": "K",
                "properties": {}
            },
            {
                "species": [
                    {
                        "element": "K",
                        "occu": 1
                    }
                ],
                "abc": [
                    0.51597137,
                    0.27114476,
                    0.0
                ],
                "xyz": [
                    -1.3168185311556264,
                    1.3168185311556264,
                    4.233563933902041
                ],
                "label": "K",
                "properties": {}
            },
            {
                "species": [
                    {
                        "element": "K",
                        "occu": 1
                    }
                ],
                "abc": [
                    0.72885524,
                    0.72885524,
                    0.24482661
                ],
                "xyz": [
                    1.316818531155626,
                    1.316818531155626,
                    6.523588086097959
                ],
                "label": "K",
                "properties": {}
            },
            {
                "species": [
                    {
                        "element": "K",
                        "occu": 1
                    }
                ],
                "abc": [
                    0.24482661,
                    0.72885524,
                    0.72885524
                ],
                "xyz": [
                    6.523588086097959,
                    1.3168185311556257,
                    1.3168185311556257
                ],
                "label": "K",
                "properties": {}
            },
            {
                "species": [
                    {
                        "element": "K",
                        "occu": 1
                    }
                ],
                "abc": [
                    0.75517339,
                    0.48402863,
                    0.48402863
                ],
                "xyz": [
                    1.1450120760979585,
                    4.061757478844374,
                    4.061757478844374
                ],
                "label": "K",
                "properties": {}
            },
            {
                "species": [
                    {
                        "element": "Bi",
                        "occu": 1
                    }
                ],
                "abc": [
                    0.294165,
                    0.294165,
                    0.294165
                ],
                "xyz": [
                    1.58218881198165,
                    1.58218881198165,
                    1.58218881198165
                ],
                "label": "Bi",
                "properties": {}
            },
            {
                "species": [
                    {
                        "element": "Bi",
                        "occu": 1
                    }
                ],
                "abc": [
                    0.0,
                    0.705835,
                    0.0
                ],
                "xyz": [
                    3.79638719801835,
                    -3.79638719801835,
                    3.79638719801835
                ],
                "label": "Bi",
                "properties": {}
            },
            {
                "species": [
                    {
                        "element": "Bi",
                        "occu": 1
                    }
                ],
                "abc": [
                    0.705835,
                    0.0,
                    0.0
                ],
                "xyz": [
                    -3.79638719801835,
                    3.79638719801835,
                    3.79638719801835
                ],
                "label": "Bi",
                "properties": {}
            },
            {
                "species": [
                    {
                        "element": "Bi",
                        "occu": 1
                    }
                ],
                "abc": [
                    0.0,
                    0.0,
                    0.705835
                ],
                "xyz": [
                    3.79638719801835,
                    3.79638719801835,
                    -3.79638719801835
                ],
                "label": "Bi",
                "properties": {}
            },
            {
                "species": [
                    {
                        "element": "O",
                        "occu": 1
                    }
                ],
                "abc": [
                    0.47118676,
                    0.47118676,
                    0.26105173
                ],
                "xyz": [
                    1.404086572346997,
                    1.404086572346997,
                    3.664541034784258
                ],
                "label": "O",
                "properties": {}
            },
            {
                "species": [
                    {
                        "element": "O",
                        "occu": 1
                    }
                ],
                "abc": [
                    0.0,
                    0.78986497,
                    0.52881324
                ],
                "xyz": [
                    7.092610985215741,
                    -1.4040865723469973,
                    1.4040865723469973
                ],
                "label": "O",
                "properties": {}
            },
            {
                "species": [
                    {
                        "element": "O",
                        "occu": 1
                    }
                ],
                "abc": [
                    0.78986497,
                    0.0,
                    0.52881324
                ],
                "xyz": [
                    -1.4040865723469973,
                    7.092610985215741,
                    1.4040865723469973
                ],
                "label": "O",
                "properties": {}
            },
            {
                "species": [
                    {
                        "element": "O",
                        "occu": 1
                    }
                ],
                "abc": [
                    0.21013503,
                    0.73894827,
                    0.21013503
                ],
                "xyz": [
                    3.974489437653003,
                    -1.714034975215742,
                    3.974489437653002
                ],
                "label": "O",
                "properties": {}
            },
            {
                "species": [
                    {
                        "element": "O",
                        "occu": 1
                    }
                ],
                "abc": [
                    0.0,
                    0.52881324,
                    0.78986497
                ],
                "xyz": [
                    7.092610985215741,
                    1.4040865723469973,
                    -1.4040865723469973
                ],
                "label": "O",
                "properties": {}
            },
            {
                "species": [
                    {
                        "element": "O",
                        "occu": 1
                    }
                ],
                "abc": [
                    0.52881324,
                    0.0,
                    0.78986497
                ],
                "xyz": [
                    1.4040865723469973,
                    7.092610985215741,
                    -1.4040865723469973
                ],
                "label": "O",
                "properties": {}
            },
            {
                "species": [
                    {
                        "element": "O",
                        "occu": 1
                    }
                ],
                "abc": [
                    0.47118676,
                    0.26105173,
                    0.47118676
                ],
                "xyz": [
                    1.404086572346997,
                    3.664541034784258,
                    1.4040865723469969
                ],
                "label": "O",
                "properties": {}
            },
            {
                "species": [
                    {
                        "element": "O",
                        "occu": 1
                    }
                ],
                "abc": [
                    0.78986497,
                    0.52881324,
                    0.0
                ],
                "xyz": [
                    -1.4040865723469973,
                    1.4040865723469973,
                    7.092610985215741
                ],
                "label": "O",
                "properties": {}
            },
            {
                "species": [
                    {
                        "element": "O",
                        "occu": 1
                    }
                ],
                "abc": [
                    0.52881324,
                    0.78986497,
                    0.0
                ],
                "xyz": [
                    1.4040865723469973,
                    -1.4040865723469973,
                    7.092610985215741
                ],
                "label": "O",
                "properties": {}
            },
            {
                "species": [
                    {
                        "element": "O",
                        "occu": 1
                    }
                ],
                "abc": [
                    0.21013503,
                    0.21013503,
                    0.73894827
                ],
                "xyz": [
                    3.9744894376530024,
                    3.9744894376530024,
                    -1.7140349752157418
                ],
                "label": "O",
                "properties": {}
            },
            {
                "species": [
                    {
                        "element": "O",
                        "occu": 1
                    }
                ],
                "abc": [
                    0.73894827,
                    0.21013503,
                    0.21013503
                ],
                "xyz": [
                    -1.714034975215742,
                    3.974489437653003,
                    3.974489437653002
                ],
                "label": "O",
                "properties": {}
            },
            {
                "species": [
                    {
                        "element": "O",
                        "occu": 1
                    }
                ],
                "abc": [
                    0.26105173,
                    0.47118676,
                    0.47118676
                ],
                "xyz": [
                    3.664541034784258,
                    1.404086572346997,
                    1.4040865723469969
                ],
                "label": "O",
                "properties": {}
            }
        ]
    },
    "spacegroup": {
        "source": "spglib",
        "symbol": "I-43m",
        "number": 217,
        "point_group": "-43m",
        "crystal_system": "cubic",
        "hall": "I -4 2 3"
    },
    "dielectric": {
        "epsilon_ionic": [
            [
                3.82724245,
                0.0,
                -0.0
            ],
            [
                0.0,
                3.82757351,
                -0.0
            ],
            [
                -0.0,
                -0.0,
                3.82729891
            ]
        ],
        "epsilon_ionic_avg": 3.8273716233333333,
        "epsilon_ionic_eig": [
            3.82724245,
            3.82757351,
            3.82729891
        ],
        "epsilon_electronic": [
            [
                3.18512814,
                0.0,
                0.0
            ],
            [
                0.0,
                3.18512814,
                -0.0
            ],
            [
                -0.0,
                -0.0,
                3.18512814
            ]
        ],
        "epsilon_electronic_avg": 3.18512814,
        "epsilon_electronic_eig": [
            3.18512814,
            3.18512814,
            3.18512814
        ]
    },
    "phonon": {
        "lowest_freq": -0.013353495941347566,
        "frequency": [
            -0.013353495941347566,
            -0.013353495941347566,
            -0.013353495941347566,
            1.4470208677986813,
            1.4470208677986813,
            1.6651297387178787,
            1.6651297387178787,
            1.6651297387178787,
            1.7022179872273207,
            1.7022179872273207,
            1.7022179872273207,
            1.8593247218512785,
            2.3976558845093976,
            2.3976558845093976,
            2.3976558845093976,
            2.4536451701302235,
            2.4536451701302235,
            2.4536451701302235,
            2.9064684095052717,
            2.9064684095052717,
            3.1676631089290206,
            3.1676631089290206,
            3.1676631089290206,
            3.2702517734790164,
            3.2702517734790164,
            3.2702517734790164,
            3.387383527645144,
            3.4223837163427175,
            3.4223837163427175,
            3.4223837163427175,
            3.479229479016456,
            4.154743149030052,
            4.154743149030052,
            4.154743149030052,
            4.278851573019529,
            4.278851573019529,
            4.278851573019529,
            4.735001835557532,
            4.735001835557532,
            4.831416974101327,
            4.831416974101327,
            4.831416974101327,
            5.310918356494995,
            5.310918356494995,
            5.448960197841857,
            5.448960197841857,
            5.448960197841857,
            5.4491417133644555,
            5.4491417133644555,
            5.4491417133644555,
            5.464904044979747,
            6.1153795774464585,
            6.340762046906691,
            6.340762046906691,
            6.340762046906691,
            6.616447242164901,
            6.616447242164901,
            6.616447242164901,
            6.699281449698559,
            6.699281449698559,
            8.179791677072112,
            8.179791677072112,
            8.179791677072112,
            8.437856819545619,
            8.832877429748438,
            8.832877429748438,
            9.047199336525109,
            9.047199336525109,
            9.047199336525109,
            9.113611957231328,
            9.113611957231328,
            9.113611957231328,
            14.7381001030424,
            14.7381001030424,
            14.7381001030424,
            15.138418144545419,
            15.138418144545419,
            15.138418144545419,
            15.195494039145501,
            15.195494039145501,
            16.663904880133238,
            16.663904880133238,
            16.663904880133238,
            17.29874435802215
        ]
    },
    "born_effective_charge": {
        "avg_abs_trace": 1.5266757142857144,
        "tensors": [
            [
                [
                    1.20471,
                    -0.07387,
                    0.1519
                ],
                [
                    -0.12426,
                    1.10484,
                    -0.12426
                ],
                [
                    0.15202,
                    -0.07381,
                    1.20461
                ]
            ],
            [
                [
                    1.20471,
                    0.07387,
                    -0.1519
                ],
                [
                    0.12429,
                    1.10476,
                    -0.12429
                ],
                [
                    -0.15203,
                    -0.07381,
                    1.20472
                ]
            ],
            [
                [
                    1.10466,
                    0.12403,
                    -0.12403
                ],
                [
                    0.07383,
                    1.20471,
                    -0.152
                ],
                [
                    -0.07381,
                    -0.15203,
                    1.20472
                ]
            ],
            [
                [
                    1.2047,
                    0.15186,
                    0.07383
                ],
                [
                    0.15206,
                    1.20472,
                    0.07377
                ],
                [
                    0.12434,
                    0.12434,
                    1.1047
                ]
            ],
            [
                [
                    1.10466,
                    -0.12403,
                    0.12403
                ],
                [
                    -0.07377,
                    1.20472,
                    -0.15206
                ],
                [
                    0.07381,
                    -0.15202,
                    1.20461
                ]
            ],
            [
                [
                    1.2047,
                    -0.07383,
                    -0.15186
                ],
                [
                    -0.12429,
                    1.10476,
                    0.12429
                ],
                [
                    -0.15202,
                    0.07381,
                    1.20461
                ]
            ],
            [
                [
                    1.2047,
                    0.07383,
                    0.15186
                ],
                [
                    0.12426,
                    1.10484,
                    0.12426
                ],
                [
                    0.15203,
                    0.07381,
                    1.20472
                ]
            ],
            [
                [
                    1.20471,
                    -0.1519,
                    0.07387
                ],
                [
                    -0.15206,
                    1.20472,
                    -0.07377
                ],
                [
                    0.12423,
                    -0.12423,
                    1.10486
                ]
            ],
            [
                [
                    1.2047,
                    -0.15186,
                    -0.07383
                ],
                [
                    -0.152,
                    1.20471,
                    0.07383
                ],
                [
                    -0.12423,
                    0.12423,
                    1.10486
                ]
            ],
            [
                [
                    1.20471,
                    0.1519,
                    -0.07387
                ],
                [
                    0.152,
                    1.20471,
                    -0.07383
                ],
                [
                    -0.12434,
                    -0.12434,
                    1.1047
                ]
            ],
            [
                [
                    1.10469,
                    -0.12413,
                    -0.12413
                ],
                [
                    -0.07383,
                    1.20471,
                    0.152
                ],
                [
                    -0.07381,
                    0.15202,
                    1.20461
                ]
            ],
            [
                [
                    1.10469,
                    0.12413,
                    0.12413
                ],
                [
                    0.07377,
                    1.20472,
                    0.15206
                ],
                [
                    0.07381,
                    0.15203,
                    1.20472
                ]
            ],
            [
                [
                    1.8293,
                    -0.25112,
                    -0.25112
                ],
                [
                    -0.25075,
                    1.82909,
                    -0.25075
                ],
                [
                    -0.25068,
                    -0.25068,
                    1.82918
                ]
            ],
            [
                [
                    1.82897,
                    0.25087,
                    -0.25087
                ],
                [
                    0.25075,
                    1.82909,
                    0.25075
                ],
                [
                    -0.25057,
                    0.25057,
                    1.82927
                ]
            ],
            [
                [
                    1.8293,
                    0.25112,
                    0.25112
                ],
                [
                    0.25089,
                    1.82954,
                    -0.25089
                ],
                [
                    0.25057,
                    -0.25057,
                    1.82927
                ]
            ],
            [
                [
                    1.82897,
                    -0.25087,
                    0.25087
                ],
                [
                    -0.25089,
                    1.82954,
                    0.25089
                ],
                [
                    0.25068,
                    0.25068,
                    1.82918
                ]
            ],
            [
                [
                    -1.33591,
                    -0.0161,
                    0.24824
                ],
                [
                    -0.01613,
                    -1.33602,
                    0.24798
                ],
                [
                    0.06487,
                    0.06487,
                    -2.67133
                ]
            ],
            [
                [
                    -2.67125,
                    0.06478,
                    -0.06478
                ],
                [
                    0.24821,
                    -1.33618,
                    0.01606
                ],
                [
                    -0.24802,
                    0.01626,
                    -1.33596
                ]
            ],
            [
                [
                    -1.33602,
                    0.24835,
                    0.01588
                ],
                [
                    0.06483,
                    -2.67142,
                    -0.06483
                ],
                [
                    0.01626,
                    -0.24802,
                    -1.33596
                ]
            ],
            [
                [
                    -1.33602,
                    -0.24835,
                    -0.01588
                ],
                [
                    -0.06477,
                    -2.67126,
                    -0.06477
                ],
                [
                    -0.01616,
                    -0.24792,
                    -1.3361
                ]
            ],
            [
                [
                    -2.67125,
                    -0.06478,
                    0.06478
                ],
                [
                    -0.24798,
                    -1.33602,
                    0.01613
                ],
                [
                    0.24792,
                    0.01616,
                    -1.3361
                ]
            ],
            [
                [
                    -1.33591,
                    -0.24824,
                    0.0161
                ],
                [
                    -0.06483,
                    -2.67142,
                    0.06483
                ],
                [
                    0.01616,
                    0.24792,
                    -1.3361
                ]
            ],
            [
                [
                    -1.33591,
                    0.24824,
                    -0.0161
                ],
                [
                    0.06477,
                    -2.67126,
                    0.06477
                ],
                [
                    -0.01626,
                    0.24802,
                    -1.33596
                ]
            ],
            [
                [
                    -1.33602,
                    0.01588,
                    0.24835
                ],
                [
                    0.01613,
                    -1.33602,
                    -0.24798
                ],
                [
                    0.06472,
                    -0.06472,
                    -2.67123
                ]
            ],
            [
                [
                    -1.33591,
                    0.0161,
                    -0.24824
                ],
                [
                    0.01606,
                    -1.33618,
                    0.24821
                ],
                [
                    -0.06472,
                    0.06472,
                    -2.67123
                ]
            ],
            [
                [
                    -1.33602,
                    -0.01588,
                    -0.24835
                ],
                [
                    -0.01606,
                    -1.33618,
                    -0.24821
                ],
                [
                    -0.06487,
                    -0.06487,
                    -2.67133
                ]
            ],
            [
                [
                    -2.67131,
                    -0.06487,
                    -0.06487
                ],
                [
                    -0.24821,
                    -1.33618,
                    -0.01606
                ],
                [
                    -0.24792,
                    -0.01616,
                    -1.3361
                ]
            ],
            [
                [
                    -2.67131,
                    0.06487,
                    0.06487
                ],
                [
                    0.24798,
                    -1.33602,
                    -0.01613
                ],
                [
                    0.24802,
                    -0.01626,
                    -1.33596
                ]
            ]
        ]
    },
    "band_gap": 2.9833,
    "is_direct": false,
    "formula": "K3BiO3"
}