{
    "mp_id": "mp-28559",
    "nelements": 3,
    "nsites": 25,
    "elements": [
        "Be",
        "Na",
        "O"
    ],
    "structure": {
        "@module": "pymatgen.core.structure",
        "@class": "Structure",
        "charge": null,
        "lattice": {
            "matrix": [
                [
                    5.17529708,
                    -0.00094919,
                    -0.00031798
                ],
                [
                    -1.36198801,
                    6.23589526,
                    0.00054037
                ],
                [
                    -0.61633432,
                    -2.08616339,
                    7.91541978
                ]
            ],
            "a": 5.175297176813082,
            "b": 6.382899131670026,
            "c": 8.208886403002627,
            "alpha": 103.42540792994993,
            "beta": 94.30662272658388,
            "gamma": 102.33105745723987,
            "volume": 255.44473562435954
        },
        "sites": [
            {
                "species": [
                    {
                        "element": "Na",
                        "occu": 1
                    }
                ],
                "abc": [
                    0.80664903,
                    0.22757167,
                    0.2211389
                ],
                "xyz": [
                    3.7284029900311073,
                    0.9570155577856276,
                    1.7502736978322004
                ],
                "label": "Na",
                "properties": {}
            },
            {
                "species": [
                    {
                        "element": "Na",
                        "occu": 1
                    }
                ],
                "abc": [
                    0.19335097,
                    0.77242833,
                    0.7788611
                ],
                "xyz": [
                    -0.5314282400311077,
                    3.1917671222143733,
                    6.165368472167799
                ],
                "label": "Na",
                "properties": {}
            },
            {
                "species": [
                    {
                        "element": "Na",
                        "occu": 1
                    }
                ],
                "abc": [
                    0.77795549,
                    0.61311749,
                    0.00105598
                ],
                "xyz": [
                    3.1904412689504404,
                    3.8203950753259726,
                    0.008442460990645499
                ],
                "label": "Na",
                "properties": {}
            },
            {
                "species": [
                    {
                        "element": "Na",
                        "occu": 1
                    }
                ],
                "abc": [
                    0.22204451,
                    0.38688251,
                    0.99894402
                ],
                "xyz": [
                    0.006533481049559309,
                    0.3283876046740284,
                    7.907199709009355
                ],
                "label": "Na",
                "properties": {}
            },
            {
                "species": [
                    {
                        "element": "Na",
                        "occu": 1
                    }
                ],
                "abc": [
                    0.96416549,
                    0.73972724,
                    0.41400509
                ],
                "xyz": [
                    3.727177667861687,
                    3.748264151335775,
                    3.277117219472849
                ],
                "label": "Na",
                "properties": {}
            },
            {
                "species": [
                    {
                        "element": "Na",
                        "occu": 1
                    }
                ],
                "abc": [
                    0.03583451,
                    0.26027276,
                    0.58599491
                ],
                "xyz": [
                    -0.530202917861688,
                    0.4005185286642259,
                    4.638524950527151
                ],
                "label": "Na",
                "properties": {}
            },
            {
                "species": [
                    {
                        "element": "Be",
                        "occu": 1
                    }
                ],
                "abc": [
                    0.83790158,
                    0.02726325,
                    0.84605213
                ],
                "xyz": [
                    3.7778064164596525,
                    -1.5957875359910458,
                    6.696606061011126
                ],
                "label": "Be",
                "properties": {}
            },
            {
                "species": [
                    {
                        "element": "Be",
                        "occu": 1
                    }
                ],
                "abc": [
                    0.16209842,
                    0.97273675,
                    0.15394787
                ],
                "xyz": [
                    -0.5808316664596522,
                    5.744570215991047,
                    1.2190361089888742
                ],
                "label": "Be",
                "properties": {}
            },
            {
                "species": [
                    {
                        "element": "Be",
                        "occu": 1
                    }
                ],
                "abc": [
                    0.52635093,
                    0.86569122,
                    0.55107982
                ],
                "xyz": [
                    1.20531196295659,
                    4.248217622930581,
                    4.362328532082669
                ],
                "label": "Be",
                "properties": {}
            },
            {
                "species": [
                    {
                        "element": "Be",
                        "occu": 1
                    }
                ],
                "abc": [
                    0.47364907,
                    0.13430878,
                    0.44892018
                ],
                "xyz": [
                    1.9916627870434103,
                    -0.09943494293058064,
                    3.5533136379173302
                ],
                "label": "Be",
                "properties": {}
            },
            {
                "species": [
                    {
                        "element": "Be",
                        "occu": 1
                    }
                ],
                "abc": [
                    0.44264998,
                    0.42641923,
                    0.36329018
                ],
                "xyz": [
                    1.4861590644096485,
                    1.9008028227328233,
                    2.8756839469704354
                ],
                "label": "Be",
                "properties": {}
            },
            {
                "species": [
                    {
                        "element": "Be",
                        "occu": 1
                    }
                ],
                "abc": [
                    0.54308791,
                    0.27141553,
                    0.74161566
                ],
                "xyz": [
                    1.9838933937110566,
                    0.1448718840614076,
                    5.8701732380380784
                ],
                "label": "Be",
                "properties": {}
            },
            {
                "species": [
                    {
                        "element": "Be",
                        "occu": 1
                    }
                ],
                "abc": [
                    0.55735002,
                    0.57358077,
                    0.63670982
                ],
                "xyz": [
                    1.7108156855903518,
                    2.2479798572671768,
                    5.039958223029564
                ],
                "label": "Be",
                "properties": {}
            },
            {
                "species": [
                    {
                        "element": "Be",
                        "occu": 1
                    }
                ],
                "abc": [
                    0.45691209,
                    0.72858447,
                    0.25838434
                ],
                "xyz": [
                    1.2130813562889433,
                    4.003910795938593,
                    2.0454689319619206
                ],
                "label": "Be",
                "properties": {}
            },
            {
                "species": [
                    {
                        "element": "O",
                        "occu": 1
                    }
                ],
                "abc": [
                    0.25424582,
                    0.17281784,
                    0.31297169
                ],
                "xyz": [
                    0.8875266301187064,
                    0.42452253992512357,
                    2.4773148460963856
                ],
                "label": "O",
                "properties": {}
            },
            {
                "species": [
                    {
                        "element": "O",
                        "occu": 1
                    }
                ],
                "abc": [
                    0.63708997,
                    0.94696708,
                    0.38472562
                ],
                "xyz": [
                    1.7702524492242988,
                    5.101982302480366,
                    3.045573913153122
                ],
                "label": "O",
                "properties": {}
            },
            {
                "species": [
                    {
                        "element": "O",
                        "occu": 1
                    }
                ],
                "abc": [
                    0.74575418,
                    0.82718216,
                    0.68702831
                ],
                "xyz": [
                    2.3094481198812935,
                    3.724260140074877,
                    5.438327323903614
                ],
                "label": "O",
                "properties": {}
            },
            {
                "species": [
                    {
                        "element": "O",
                        "occu": 1
                    }
                ],
                "abc": [
                    0.0,
                    0.0,
                    0.0
                ],
                "xyz": [
                    0.0,
                    0.0,
                    0.0
                ],
                "label": "O",
                "properties": {}
            },
            {
                "species": [
                    {
                        "element": "O",
                        "occu": 1
                    }
                ],
                "abc": [
                    0.20215451,
                    0.74109158,
                    0.15420353
                ],
                "xyz": [
                    -0.058189128764274484,
                    4.2994838290137976,
                    1.2209218540738183
                ],
                "label": "O",
                "properties": {}
            },
            {
                "species": [
                    {
                        "element": "O",
                        "occu": 1
                    }
                ],
                "abc": [
                    0.79784549,
                    0.25890842,
                    0.84579647
                ],
                "xyz": [
                    3.2551638787642747,
                    -0.15070114901379705,
                    6.694720315926181
                ],
                "label": "O",
                "properties": {}
            },
            {
                "species": [
                    {
                        "element": "O",
                        "occu": 1
                    }
                ],
                "abc": [
                    0.33109022,
                    0.61618158,
                    0.49055761
                ],
                "xyz": [
                    0.5719108338595267,
                    2.8187461998274914,
                    3.8831970953957544
                ],
                "label": "O",
                "properties": {}
            },
            {
                "species": [
                    {
                        "element": "O",
                        "occu": 1
                    }
                ],
                "abc": [
                    0.66890978,
                    0.38381842,
                    0.50944239
                ],
                "xyz": [
                    2.6250639161404736,
                    1.3300364801725089,
                    4.0324450746042455
                ],
                "label": "O",
                "properties": {}
            },
            {
                "species": [
                    {
                        "element": "O",
                        "occu": 1
                    }
                ],
                "abc": [
                    0.42844245,
                    0.48304621,
                    0.78344529
                ],
                "xyz": [
                    1.076549594067751,
                    1.3774240159449163,
                    6.2014231325640825
                ],
                "label": "O",
                "properties": {}
            },
            {
                "species": [
                    {
                        "element": "O",
                        "occu": 1
                    }
                ],
                "abc": [
                    0.57155755,
                    0.51695379,
                    0.21655471
                ],
                "xyz": [
                    2.120425155932249,
                    2.771358664055084,
                    1.714219037435917
                ],
                "label": "O",
                "properties": {}
            },
            {
                "species": [
                    {
                        "element": "O",
                        "occu": 1
                    }
                ],
                "abc": [
                    0.36291003,
                    0.05303292,
                    0.61527438
                ],
                "xyz": [
                    1.4267223007757017,
                    -0.9531996224803645,
                    4.870068256846878
                ],
                "label": "O",
                "properties": {}
            }
        ]
    },
    "spacegroup": {
        "source": "spglib",
        "symbol": "P-1",
        "number": 2,
        "point_group": "-1",
        "crystal_system": "triclinic",
        "hall": "-P 1"
    },
    "dielectric": {
        "epsilon_ionic": [
            [
                4.31587064,
                1.48365189,
                0.65127826
            ],
            [
                1.48365189,
                7.0180497,
                -0.8027242
            ],
            [
                0.65127826,
                -0.8027242,
                7.8770235
            ]
        ],
        "epsilon_ionic_avg": 6.403647946666664,
        "epsilon_ionic_eig": [
            3.4660365945727083,
            7.371303285093054,
            8.373603960334231
        ],
        "epsilon_electronic": [
            [
                2.48248221,
                -0.03152949,
                0.03306734
            ],
            [
                -0.03152887,
                2.63793055,
                -0.02201536
            ],
            [
                0.03306515,
                -0.02201449,
                2.6243088
            ]
        ],
        "epsilon_electronic_avg": 2.5815738533333334,
        "epsilon_electronic_eig": [
            2.470972654484924,
            2.665306954111727,
            2.608441951403349
        ]
    },
    "phonon": {
        "lowest_freq": -0.2084207760443119,
        "frequency": [
            -0.2084207760443119,
            -0.14758017979431365,
            -0.12925063153556055,
            2.2252557553482566,
            2.602095389928953,
            3.199897748435691,
            3.248785447826885,
            3.406845223943295,
            3.606379344467739,
            4.161358197631379,
            4.457718116328567,
            4.585861606238826,
            4.870933029500853,
            4.899539369632489,
            5.052775979908541,
            5.078105860567679,
            5.728670137134721,
            5.850854514044129,
            5.916154122780959,
            6.344052990347748,
            6.412462528046964,
            6.491972505960139,
            6.724709221894122,
            7.085979374653268,
            7.141540452667852,
            7.804541898259195,
            7.873140782280284,
            8.18787078507023,
            8.19885492559761,
            8.858108547889094,
            9.744851049796933,
            9.76836016413243,
            10.545131315101754,
            10.79396116985891,
            10.973469709494815,
            11.314552906037475,
            11.814462408348048,
            12.159141568388188,
            12.395415445278376,
            12.528606233007215,
            14.375601549270483,
            14.484020366843245,
            14.861100770583995,
            15.140490769471402,
            15.489902289054262,
            16.288226094245115,
            16.707054873569056,
            16.931458186807546,
            17.15495718223306,
            17.17541758543192,
            17.450712064322385,
            17.863695626896494,
            17.907830344387428,
            18.747643547415542,
            18.946555377714823,
            19.188875227642576,
            20.214160421800713,
            20.68891269894416,
            20.886698014247628,
            22.8307533296704,
            22.91778110134578,
            23.793386954929055,
            25.09792821984129,
            25.34714679834134,
            25.982095946446023,
            26.94930027559292,
            27.62882454269893,
            28.09173044853799,
            28.995552815472404,
            29.407303168193536,
            29.590522201521487,
            30.200992957164345,
            30.576518518689394,
            30.71275886282288,
            32.44189175421767
        ]
    },
    "born_effective_charge": {
        "avg_abs_trace": 1.4827910666666668,
        "tensors": [
            [
                [
                    1.18355,
                    -0.01323,
                    -0.08621
                ],
                [
                    -0.00399,
                    1.04225,
                    -0.0383
                ],
                [
                    -0.10135,
                    -0.023,
                    1.08695
                ]
            ],
            [
                [
                    1.18355,
                    -0.01323,
                    -0.08621
                ],
                [
                    -0.00399,
                    1.04226,
                    -0.03831
                ],
                [
                    -0.10135,
                    -0.023,
                    1.08698
                ]
            ],
            [
                [
                    0.95307,
                    0.04607,
                    0.00383
                ],
                [
                    0.04126,
                    0.9827,
                    0.03576
                ],
                [
                    0.00191,
                    0.03494,
                    1.10327
                ]
            ],
            [
                [
                    0.95309,
                    0.04607,
                    0.00383
                ],
                [
                    0.04127,
                    0.98271,
                    0.03576
                ],
                [
                    0.00189,
                    0.03492,
                    1.10328
                ]
            ],
            [
                [
                    1.22673,
                    0.10752,
                    -0.02887
                ],
                [
                    0.10794,
                    1.00646,
                    -0.02207
                ],
                [
                    -0.05176,
                    -0.02662,
                    0.90859
                ]
            ],
            [
                [
                    1.22672,
                    0.10751,
                    -0.02887
                ],
                [
                    0.10793,
                    1.00647,
                    -0.02207
                ],
                [
                    -0.05176,
                    -0.02661,
                    0.9086
                ]
            ],
            [
                [
                    1.08631,
                    -0.39582,
                    0.54461
                ],
                [
                    -0.36582,
                    1.69454,
                    0.1147
                ],
                [
                    0.55354,
                    0.04017,
                    1.89195
                ]
            ],
            [
                [
                    1.08632,
                    -0.39584,
                    0.54459
                ],
                [
                    -0.36582,
                    1.69454,
                    0.1147
                ],
                [
                    0.55352,
                    0.04019,
                    1.89191
                ]
            ],
            [
                [
                    1.14749,
                    -0.2367,
                    0.12529
                ],
                [
                    -0.21196,
                    1.82868,
                    -0.01281
                ],
                [
                    0.15283,
                    -0.03171,
                    1.50901
                ]
            ],
            [
                [
                    1.14751,
                    -0.23669,
                    0.12526
                ],
                [
                    -0.21196,
                    1.82868,
                    -0.01281
                ],
                [
                    0.15286,
                    -0.03171,
                    1.50899
                ]
            ],
            [
                [
                    1.0274,
                    0.01904,
                    0.0027
                ],
                [
                    -0.08124,
                    1.94346,
                    -0.07689
                ],
                [
                    0.07266,
                    -0.05235,
                    1.59276
                ]
            ],
            [
                [
                    1.34524,
                    -0.35369,
                    0.29144
                ],
                [
                    -0.36633,
                    1.69591,
                    0.04788
                ],
                [
                    0.27932,
                    0.10453,
                    1.546
                ]
            ],
            [
                [
                    1.02742,
                    0.01905,
                    0.00268
                ],
                [
                    -0.08125,
                    1.94346,
                    -0.07691
                ],
                [
                    0.07267,
                    -0.05233,
                    1.59279
                ]
            ],
            [
                [
                    1.34524,
                    -0.35368,
                    0.29146
                ],
                [
                    -0.36633,
                    1.69591,
                    0.04789
                ],
                [
                    0.27931,
                    0.10451,
                    1.54591
                ]
            ],
            [
                [
                    -1.33236,
                    -0.06774,
                    -0.42865
                ],
                [
                    -0.03303,
                    -1.92376,
                    -0.28201
                ],
                [
                    -0.438,
                    -0.32782,
                    -1.81402
                ]
            ],
            [
                [
                    -1.42667,
                    0.09865,
                    0.07474
                ],
                [
                    0.09389,
                    -1.88824,
                    -0.16112
                ],
                [
                    0.11567,
                    -0.08166,
                    -1.66305
                ]
            ],
            [
                [
                    -1.33227,
                    -0.06773,
                    -0.42864
                ],
                [
                    -0.03303,
                    -1.92374,
                    -0.28201
                ],
                [
                    -0.43807,
                    -0.32782,
                    -1.81407
                ]
            ],
            [
                [
                    -1.5072,
                    0.27315,
                    -0.63564
                ],
                [
                    0.26634,
                    -1.44464,
                    0.29455
                ],
                [
                    -0.67806,
                    0.37282,
                    -2.27536
                ]
            ],
            [
                [
                    -1.63356,
                    0.37369,
                    -0.3453
                ],
                [
                    0.4182,
                    -1.80097,
                    0.06184
                ],
                [
                    -0.40505,
                    0.09105,
                    -1.5838
                ]
            ],
            [
                [
                    -1.6336,
                    0.37361,
                    -0.34538
                ],
                [
                    0.41823,
                    -1.80094,
                    0.06189
                ],
                [
                    -0.40492,
                    0.09129,
                    -1.58364
                ]
            ],
            [
                [
                    -1.41559,
                    0.09548,
                    -0.03282
                ],
                [
                    0.1557,
                    -2.02767,
                    -0.03707
                ],
                [
                    -0.09911,
                    -0.00521,
                    -1.75671
                ]
            ],
            [
                [
                    -1.41554,
                    0.09544,
                    -0.03274
                ],
                [
                    0.15568,
                    -2.0277,
                    -0.03705
                ],
                [
                    -0.09924,
                    -0.00514,
                    -1.75669
                ]
            ],
            [
                [
                    -1.40817,
                    0.19019,
                    0.19716
                ],
                [
                    0.11219,
                    -1.83109,
                    0.22278
                ],
                [
                    0.25841,
                    0.09108,
                    -1.68341
                ]
            ],
            [
                [
                    -1.4081,
                    0.19015,
                    0.19711
                ],
                [
                    0.11223,
                    -1.83107,
                    0.22281
                ],
                [
                    0.25838,
                    0.09122,
                    -1.68325
                ]
            ],
            [
                [
                    -1.4266,
                    0.09874,
                    0.07464
                ],
                [
                    0.0939,
                    -1.88821,
                    -0.16113
                ],
                [
                    0.11568,
                    -0.08174,
                    -1.66298
                ]
            ]
        ]
    },
    "band_gap": 3.7197999999999998,
    "is_direct": false,
    "formula": "Na6Be8O11"
}