{
    "mp_id": "mp-31238",
    "nelements": 3,
    "nsites": 33,
    "elements": [
        "Ba",
        "O",
        "Sb"
    ],
    "structure": {
        "@module": "pymatgen.core.structure",
        "@class": "Structure",
        "charge": null,
        "lattice": {
            "matrix": [
                [
                    6.16312373,
                    0.0001672,
                    -0.00060638
                ],
                [
                    -3.0401954,
                    9.28371978,
                    -0.00010552
                ],
                [
                    -0.10793416,
                    -3.4170788,
                    11.59838679
                ]
            ],
            "a": 6.163123762098378,
            "b": 9.768840311668468,
            "c": 12.091759732923526,
            "alpha": 105.41415846749874,
            "beta": 90.51729039171384,
            "gamma": 108.1308248815588,
            "volume": 663.6183425196631
        },
        "sites": [
            {
                "species": [
                    {
                        "element": "Ba",
                        "occu": 1
                    }
                ],
                "abc": [
                    0.60992873,
                    0.20832096,
                    0.05817342
                ],
                "xyz": [
                    3.1194509059341518,
                    1.7353122368187486,
                    0.6743259954461253
                ],
                "label": "Ba",
                "properties": {}
            },
            {
                "species": [
                    {
                        "element": "Ba",
                        "occu": 1
                    }
                ],
                "abc": [
                    0.2226609,
                    0.39771561,
                    0.70376846
                ],
                "xyz": [
                    0.08719285093836934,
                    1.2874852194995978,
                    8.162401825614934
                ],
                "label": "Ba",
                "properties": {}
            },
            {
                "species": [
                    {
                        "element": "Ba",
                        "occu": 1
                    }
                ],
                "abc": [
                    0.39007127,
                    0.79167904,
                    0.94182658
                ],
                "xyz": [
                    -0.10445673593415192,
                    4.1314959431812515,
                    10.923348894553873
                ],
                "label": "Ba",
                "properties": {}
            },
            {
                "species": [
                    {
                        "element": "Ba",
                        "occu": 1
                    }
                ],
                "abc": [
                    0.7773391,
                    0.60228439,
                    0.29623154
                ],
                "xyz": [
                    2.9278013190616297,
                    4.579322960500402,
                    3.4352730643850657
                ],
                "label": "Ba",
                "properties": {}
            },
            {
                "species": [
                    {
                        "element": "Ba",
                        "occu": 1
                    }
                ],
                "abc": [
                    0.51634412,
                    0.03318919,
                    0.70071689
                ],
                "xyz": [
                    3.0057597871302786,
                    -2.0861993571988897,
                    8.126868917635068
                ],
                "label": "Ba",
                "properties": {}
            },
            {
                "species": [
                    {
                        "element": "Ba",
                        "occu": 1
                    }
                ],
                "abc": [
                    0.48365588,
                    0.96681081,
                    0.29928311
                ],
                "xyz": [
                    0.00923438286972044,
                    7.95300753719889,
                    3.4708059723649316
                ],
                "label": "Ba",
                "properties": {}
            },
            {
                "species": [
                    {
                        "element": "Ba",
                        "occu": 1
                    }
                ],
                "abc": [
                    0.85074672,
                    0.72530711,
                    0.71367335
                ],
                "xyz": [
                    2.961152225295735,
                    4.29501213412324,
                    8.276867144812725
                ],
                "label": "Ba",
                "properties": {}
            },
            {
                "species": [
                    {
                        "element": "Ba",
                        "occu": 1
                    }
                ],
                "abc": [
                    0.14925328,
                    0.27469289,
                    0.28632665
                ],
                "xyz": [
                    0.05384194470426418,
                    1.5717960458767606,
                    3.3208077451872744
                ],
                "label": "Ba",
                "properties": {}
            },
            {
                "species": [
                    {
                        "element": "Ba",
                        "occu": 1
                    }
                ],
                "abc": [
                    0.0,
                    0.0,
                    0.5
                ],
                "xyz": [
                    -0.05396708,
                    -1.7085394,
                    5.799193395
                ],
                "label": "Ba",
                "properties": {}
            },
            {
                "species": [
                    {
                        "element": "Sb",
                        "occu": 1
                    }
                ],
                "abc": [
                    0.76460301,
                    0.50717251,
                    0.92178643
                ],
                "xyz": [
                    3.070947179030524,
                    1.5587584365018357,
                    10.6907183960968
                ],
                "label": "Sb",
                "properties": {}
            },
            {
                "species": [
                    {
                        "element": "Sb",
                        "occu": 1
                    }
                ],
                "abc": [
                    0.23539699,
                    0.49282749,
                    0.07821357
                ],
                "xyz": [
                    -0.05595300903052452,
                    4.308049743498164,
                    0.9069564939031992
                ],
                "label": "Sb",
                "properties": {}
            },
            {
                "species": [
                    {
                        "element": "Sb",
                        "occu": 1
                    }
                ],
                "abc": [
                    0.04918617,
                    0.10247796,
                    0.88037695
                ],
                "xyz": [
                    -0.10343531766018191,
                    -2.0569325236599876,
                    10.210911748116388
                ],
                "label": "Sb",
                "properties": {}
            },
            {
                "species": [
                    {
                        "element": "Sb",
                        "occu": 1
                    }
                ],
                "abc": [
                    0.95081383,
                    0.89752204,
                    0.11962305
                ],
                "xyz": [
                    3.118429487660182,
                    7.923740703659988,
                    1.3867631418836133
                ],
                "label": "Sb",
                "properties": {}
            },
            {
                "species": [
                    {
                        "element": "Sb",
                        "occu": 1
                    }
                ],
                "abc": [
                    0.68563704,
                    0.33808163,
                    0.50855598
                ],
                "xyz": [
                    3.1429411325261802,
                    1.4009938963275055,
                    5.897977529445591
                ],
                "label": "Sb",
                "properties": {}
            },
            {
                "species": [
                    {
                        "element": "Sb",
                        "occu": 1
                    }
                ],
                "abc": [
                    0.31436296,
                    0.66191837,
                    0.49144402
                ],
                "xyz": [
                    -0.12794696252618054,
                    4.465814283672495,
                    5.699697360554408
                ],
                "label": "Sb",
                "properties": {}
            },
            {
                "species": [
                    {
                        "element": "O",
                        "occu": 1
                    }
                ],
                "abc": [
                    0.43772233,
                    0.16182814,
                    0.52348379
                ],
                "xyz": [
                    2.1492459292080683,
                    -0.2863450695004668,
                    6.071284972543336
                ],
                "label": "O",
                "properties": {}
            },
            {
                "species": [
                    {
                        "element": "O",
                        "occu": 1
                    }
                ],
                "abc": [
                    0.56227767,
                    0.83817186,
                    0.47651621
                ],
                "xyz": [
                    0.8657482407919312,
                    6.153153249500467,
                    5.5263899174566635
                ],
                "label": "O",
                "properties": {}
            },
            {
                "species": [
                    {
                        "element": "O",
                        "occu": 1
                    }
                ],
                "abc": [
                    0.60386816,
                    0.32238003,
                    0.34905718
                ],
                "xyz": [
                    2.7039407089143057,
                    1.800230938178561,
                    4.048099994351026
                ],
                "label": "O",
                "properties": {}
            },
            {
                "species": [
                    {
                        "element": "O",
                        "occu": 1
                    }
                ],
                "abc": [
                    0.39613184,
                    0.67761997,
                    0.65094282
                ],
                "xyz": [
                    0.311053461085694,
                    4.066577241821438,
                    7.549574895648974
                ],
                "label": "O",
                "properties": {}
            },
            {
                "species": [
                    {
                        "element": "O",
                        "occu": 1
                    }
                ],
                "abc": [
                    0.93726081,
                    0.25249833,
                    0.48649671
                ],
                "xyz": [
                    4.9563004641997255,
                    0.6818828566346515,
                    5.641982034808711
                ],
                "label": "O",
                "properties": {}
            },
            {
                "species": [
                    {
                        "element": "O",
                        "occu": 1
                    }
                ],
                "abc": [
                    0.06273919,
                    0.74750167,
                    0.51350329
                ],
                "xyz": [
                    -1.9413062941997257,
                    5.1849253233653485,
                    5.9556928551912875
                ],
                "label": "O",
                "properties": {}
            },
            {
                "species": [
                    {
                        "element": "O",
                        "occu": 1
                    }
                ],
                "abc": [
                    0.61846426,
                    0.2909946,
                    0.85038005
                ],
                "xyz": [
                    2.835206256240542,
                    -0.2041999096804803,
                    9.86263100829137
                ],
                "label": "O",
                "properties": {}
            },
            {
                "species": [
                    {
                        "element": "O",
                        "occu": 1
                    }
                ],
                "abc": [
                    0.38153574,
                    0.7090054,
                    0.14961995
                ],
                "xyz": [
                    0.1797879137594579,
                    6.07100808968048,
                    1.7350438817086313
                ],
                "label": "O",
                "properties": {}
            },
            {
                "species": [
                    {
                        "element": "O",
                        "occu": 1
                    }
                ],
                "abc": [
                    0.5653359,
                    0.58349926,
                    0.84497906
                ],
                "xyz": [
                    1.6190812294968133,
                    2.5297781134699147,
                    9.79998958810566
                ],
                "label": "O",
                "properties": {}
            },
            {
                "species": [
                    {
                        "element": "O",
                        "occu": 1
                    }
                ],
                "abc": [
                    0.4346641,
                    0.41650074,
                    0.15502094
                ],
                "xyz": [
                    1.3959129405031867,
                    3.3370300665300854,
                    1.7976853018943397
                ],
                "label": "O",
                "properties": {}
            },
            {
                "species": [
                    {
                        "element": "O",
                        "occu": 1
                    }
                ],
                "abc": [
                    0.01157184,
                    0.56569401,
                    0.82322785
                ],
                "xyz": [
                    -1.7373560517841469,
                    2.438712171071586,
                    9.548048311635826
                ],
                "label": "O",
                "properties": {}
            },
            {
                "species": [
                    {
                        "element": "O",
                        "occu": 1
                    }
                ],
                "abc": [
                    0.79032039,
                    0.04678116,
                    0.15461524
                ],
                "xyz": [
                    4.711930216420593,
                    -0.09389713676835915,
                    1.792803186322588
                ],
                "label": "O",
                "properties": {}
            },
            {
                "species": [
                    {
                        "element": "O",
                        "occu": 1
                    }
                ],
                "abc": [
                    0.20967961,
                    0.95321884,
                    0.84538476
                ],
                "xyz": [
                    -1.6969360464205925,
                    5.960705316768358,
                    9.80487170367741
                ],
                "label": "O",
                "properties": {}
            },
            {
                "species": [
                    {
                        "element": "O",
                        "occu": 1
                    }
                ],
                "abc": [
                    0.26499422,
                    0.03738326,
                    0.13612251
                ],
                "xyz": [
                    1.5048474817318949,
                    -0.11804132578732118,
                    1.578636889928924
                ],
                "label": "O",
                "properties": {}
            },
            {
                "species": [
                    {
                        "element": "O",
                        "occu": 1
                    }
                ],
                "abc": [
                    0.73500578,
                    0.96261674,
                    0.86387749
                ],
                "xyz": [
                    1.5101466882681052,
                    5.984849505787322,
                    10.019038000071076
                ],
                "label": "O",
                "properties": {}
            },
            {
                "species": [
                    {
                        "element": "O",
                        "occu": 1
                    }
                ],
                "abc": [
                    0.97682661,
                    0.88615414,
                    0.27928866
                ],
                "xyz": [
                    3.296076733152874,
                    7.272618683889673,
                    3.238612069636177
                ],
                "label": "O",
                "properties": {}
            },
            {
                "species": [
                    {
                        "element": "O",
                        "occu": 1
                    }
                ],
                "abc": [
                    0.02317339,
                    0.11384586,
                    0.72071134
                ],
                "xyz": [
                    -0.2810825631528737,
                    -1.4058105038896733,
                    8.359062820363823
                ],
                "label": "O",
                "properties": {}
            },
            {
                "species": [
                    {
                        "element": "O",
                        "occu": 1
                    }
                ],
                "abc": [
                    0.98842816,
                    0.43430599,
                    0.17677215
                ],
                "xyz": [
                    4.7523502217841465,
                    3.4280960089284145,
                    2.049626578364173
                ],
                "label": "O",
                "properties": {}
            }
        ]
    },
    "spacegroup": {
        "source": "spglib",
        "symbol": "P-1",
        "number": 2,
        "point_group": "-1",
        "crystal_system": "triclinic",
        "hall": "-P 1"
    },
    "dielectric": {
        "epsilon_ionic": [
            [
                17.74179958,
                -1.74244102,
                0.34103768
            ],
            [
                -1.74244102,
                10.31288053,
                0.61080008
            ],
            [
                0.34103768,
                0.61080008,
                9.34079131
            ]
        ],
        "epsilon_ionic_avg": 12.465157140000004,
        "epsilon_ionic_eig": [
            18.134758181584985,
            10.362243297353256,
            8.898469941061771
        ],
        "epsilon_electronic": [
            [
                4.31633698,
                0.01709677,
                0.02571713
            ],
            [
                0.01709634,
                4.28308951,
                0.03573513
            ],
            [
                0.02571758,
                0.03573971,
                4.07792671
            ]
        ],
        "epsilon_electronic_avg": 4.225784400000002,
        "epsilon_electronic_eig": [
            4.069808312381184,
            4.329408428806617,
            4.278136458812207
        ]
    },
    "phonon": {
        "lowest_freq": -0.07646743361024749,
        "frequency": [
            -0.07646743361024749,
            -0.04861324139260327,
            -0.03646534212017517,
            1.1818960001871026,
            1.220371607714915,
            1.3755489485658372,
            1.4665750672466131,
            1.4703914383770982,
            1.5300760055708438,
            1.6275559893885445,
            1.6797626681059916,
            1.7146378145311278,
            1.8796118782014646,
            1.9541477044522357,
            1.9985503461845642,
            2.1183904303174628,
            2.1604635070990255,
            2.243233311839938,
            2.2786554423695793,
            2.427615215840218,
            2.4307105789101264,
            2.5145480569459497,
            2.57574916161747,
            2.7373897204366884,
            2.737784837008883,
            2.750586054232089,
            2.800236102905583,
            2.845148565210308,
            2.917110693535479,
            2.98106461899435,
            3.2542639191205125,
            3.319297014527625,
            3.370121056252116,
            3.5161791737752277,
            3.5334400454746606,
            3.569186077627589,
            3.64477832044278,
            3.721182961076374,
            3.874024371937364,
            3.9493913554052322,
            3.9498941783553447,
            4.061863903258735,
            4.105710155026732,
            4.201849791881336,
            4.25825138103916,
            4.347980292041127,
            4.420031010837975,
            4.584771214474959,
            4.711210843785788,
            4.758846581959271,
            4.821215438580034,
            4.922155462549466,
            5.090999666277653,
            5.250248678567897,
            5.4247427512150725,
            5.579070110801728,
            5.705064970722617,
            5.7779873547155365,
            5.829613687981074,
            5.987245563558251,
            6.212276209810827,
            6.377056483935565,
            6.592206142875997,
            8.012462856409048,
            8.199485795106863,
            8.331819216409963,
            8.402475606459767,
            8.436436820688431,
            8.589667671544982,
            8.816009696936396,
            8.843711353246432,
            8.963193284071961,
            9.13319574376603,
            9.584284386358599,
            9.607356740326946,
            10.011928511058741,
            10.434981642612168,
            10.481612671289767,
            10.765431355020903,
            11.301403567947036,
            11.657721194071337,
            16.90594891851547,
            17.011260175665438,
            17.12258203599855,
            17.34998667950344,
            17.401637090921984,
            17.529732790384774,
            17.566278314315607,
            17.83962965849789,
            17.920081350691227,
            18.21498066465173,
            18.27637820144973,
            19.25551878085235,
            19.369454120811124,
            19.70245662841916,
            20.02434734554819,
            20.039780666755274,
            20.36139696471857,
            20.533043923233866
        ]
    },
    "born_effective_charge": {
        "avg_abs_trace": 2.388723636363636,
        "tensors": [
            [
                [
                    3.14396,
                    -0.04289,
                    -0.03931
                ],
                [
                    -0.05307,
                    3.22717,
                    -0.2724
                ],
                [
                    -0.05343,
                    -0.11749,
                    2.38399
                ]
            ],
            [
                [
                    2.85342,
                    0.01984,
                    0.13031
                ],
                [
                    0.06668,
                    2.78502,
                    0.18602
                ],
                [
                    0.03307,
                    0.15438,
                    2.82665
                ]
            ],
            [
                [
                    3.14396,
                    -0.04289,
                    -0.03933
                ],
                [
                    -0.05292,
                    3.22696,
                    -0.27249
                ],
                [
                    -0.05331,
                    -0.11737,
                    2.38383
                ]
            ],
            [
                [
                    2.85336,
                    0.01991,
                    0.13024
                ],
                [
                    0.06664,
                    2.78499,
                    0.18602
                ],
                [
                    0.03305,
                    0.15439,
                    2.82656
                ]
            ],
            [
                [
                    2.53735,
                    -0.03832,
                    -0.03128
                ],
                [
                    -0.16163,
                    2.67055,
                    0.33708
                ],
                [
                    -0.01839,
                    0.16966,
                    2.87785
                ]
            ],
            [
                [
                    2.53738,
                    -0.03836,
                    -0.03125
                ],
                [
                    -0.16172,
                    2.67066,
                    0.33712
                ],
                [
                    -0.01844,
                    0.16988,
                    2.87783
                ]
            ],
            [
                [
                    2.46186,
                    0.12406,
                    -0.07322
                ],
                [
                    0.07603,
                    2.71802,
                    -0.01416
                ],
                [
                    0.10463,
                    -0.08727,
                    2.65256
                ]
            ],
            [
                [
                    2.46187,
                    0.12411,
                    -0.07333
                ],
                [
                    0.07591,
                    2.71795,
                    -0.01408
                ],
                [
                    0.10469,
                    -0.08719,
                    2.65252
                ]
            ],
            [
                [
                    2.87079,
                    -0.17444,
                    0.12454
                ],
                [
                    0.31905,
                    3.05376,
                    0.07841
                ],
                [
                    -0.08234,
                    0.14854,
                    3.24138
                ]
            ],
            [
                [
                    2.59126,
                    0.09193,
                    0.26172
                ],
                [
                    0.08102,
                    2.90246,
                    -0.18057
                ],
                [
                    -0.00561,
                    -0.21188,
                    2.07475
                ]
            ],
            [
                [
                    2.59125,
                    0.09195,
                    0.2616
                ],
                [
                    0.08095,
                    2.90228,
                    -0.18045
                ],
                [
                    -0.00576,
                    -0.21163,
                    2.0743
                ]
            ],
            [
                [
                    2.64206,
                    -0.01624,
                    -0.02455
                ],
                [
                    0.10068,
                    2.44345,
                    -0.16919
                ],
                [
                    0.09086,
                    -0.29531,
                    2.25671
                ]
            ],
            [
                [
                    2.64209,
                    -0.01627,
                    -0.02449
                ],
                [
                    0.10065,
                    2.44331,
                    -0.16936
                ],
                [
                    0.09094,
                    -0.2949,
                    2.2567
                ]
            ],
            [
                [
                    2.35891,
                    0.13784,
                    0.07986
                ],
                [
                    0.13398,
                    2.0439,
                    -0.35975
                ],
                [
                    0.08688,
                    -0.33858,
                    2.08649
                ]
            ],
            [
                [
                    2.3589,
                    0.1379,
                    0.0799
                ],
                [
                    0.13403,
                    2.04385,
                    -0.35969
                ],
                [
                    0.08686,
                    -0.33829,
                    2.08694
                ]
            ],
            [
                [
                    -2.02853,
                    -0.94596,
                    0.01339
                ],
                [
                    -0.73369,
                    -2.6902,
                    -0.13236
                ],
                [
                    0.2699,
                    0.34018,
                    -1.74229
                ]
            ],
            [
                [
                    -2.02851,
                    -0.94596,
                    0.01334
                ],
                [
                    -0.73376,
                    -2.69035,
                    -0.1324
                ],
                [
                    0.26948,
                    0.33962,
                    -1.74223
                ]
            ],
            [
                [
                    -1.69238,
                    0.07664,
                    -0.49122
                ],
                [
                    0.16009,
                    -1.79079,
                    0.53202
                ],
                [
                    -0.42153,
                    0.15561,
                    -2.61598
                ]
            ],
            [
                [
                    -1.6924,
                    0.07662,
                    -0.49144
                ],
                [
                    0.15996,
                    -1.79071,
                    0.53154
                ],
                [
                    -0.42164,
                    0.15573,
                    -2.61653
                ]
            ],
            [
                [
                    -2.84362,
                    0.79598,
                    0.27855
                ],
                [
                    0.33421,
                    -1.91483,
                    -0.1202
                ],
                [
                    -0.05298,
                    -0.01381,
                    -1.76466
                ]
            ],
            [
                [
                    -2.84354,
                    0.79598,
                    0.27845
                ],
                [
                    0.33424,
                    -1.91467,
                    -0.12016
                ],
                [
                    -0.0524,
                    -0.01383,
                    -1.76478
                ]
            ],
            [
                [
                    -1.37982,
                    -0.20768,
                    -0.20864
                ],
                [
                    -0.22124,
                    -3.20788,
                    -1.04446
                ],
                [
                    -0.10494,
                    -0.56029,
                    -1.98924
                ]
            ],
            [
                [
                    -1.37987,
                    -0.20763,
                    -0.20864
                ],
                [
                    -0.22114,
                    -3.20741,
                    -1.04409
                ],
                [
                    -0.10488,
                    -0.56029,
                    -1.98929
                ]
            ],
            [
                [
                    -2.8509,
                    0.45333,
                    -0.73784
                ],
                [
                    0.4815,
                    -2.06836,
                    0.40078
                ],
                [
                    -0.28662,
                    0.17198,
                    -2.0872
                ]
            ],
            [
                [
                    -2.85078,
                    0.45337,
                    -0.73787
                ],
                [
                    0.48125,
                    -2.06825,
                    0.40065
                ],
                [
                    -0.2861,
                    0.17159,
                    -2.08694
                ]
            ],
            [
                [
                    -2.57827,
                    -0.23472,
                    0.66784
                ],
                [
                    -0.21869,
                    -1.9242,
                    0.49494
                ],
                [
                    0.35728,
                    0.25737,
                    -2.21358
                ]
            ],
            [
                [
                    -2.54269,
                    0.72672,
                    0.33279
                ],
                [
                    0.49436,
                    -2.41755,
                    -0.26089
                ],
                [
                    0.0225,
                    -0.05761,
                    -1.64142
                ]
            ],
            [
                [
                    -2.5427,
                    0.72675,
                    0.33264
                ],
                [
                    0.49452,
                    -2.4178,
                    -0.26084
                ],
                [
                    0.02274,
                    -0.05772,
                    -1.64127
                ]
            ],
            [
                [
                    -2.55613,
                    -0.79654,
                    -0.16407
                ],
                [
                    -0.64396,
                    -2.42637,
                    -0.1111
                ],
                [
                    0.0854,
                    0.10366,
                    -1.64901
                ]
            ],
            [
                [
                    -2.55588,
                    -0.79629,
                    -0.16398
                ],
                [
                    -0.64404,
                    -2.42658,
                    -0.11091
                ],
                [
                    0.08468,
                    0.10315,
                    -1.64912
                ]
            ],
            [
                [
                    -1.55215,
                    -0.05721,
                    -0.05591
                ],
                [
                    -0.0557,
                    -1.87702,
                    0.67496
                ],
                [
                    -0.06584,
                    0.25529,
                    -3.07653
                ]
            ],
            [
                [
                    -1.55209,
                    -0.05688,
                    -0.05655
                ],
                [
                    -0.05547,
                    -1.87714,
                    0.67514
                ],
                [
                    -0.06564,
                    0.25524,
                    -3.07573
                ]
            ],
            [
                [
                    -2.57817,
                    -0.23465,
                    0.66775
                ],
                [
                    -0.21872,
                    -1.92422,
                    0.49488
                ],
                [
                    0.35691,
                    0.25718,
                    -2.21327
                ]
            ]
        ]
    },
    "band_gap": 2.7796,
    "is_direct": false,
    "formula": "Ba3(SbO3)2"
}