{
    "mp_id": "mp-30284",
    "nelements": 3,
    "nsites": 10,
    "elements": [
        "As",
        "Hg",
        "O"
    ],
    "structure": {
        "@module": "pymatgen.core.structure",
        "@class": "Structure",
        "charge": null,
        "lattice": {
            "matrix": [
                [
                    4.90551221,
                    -0.0,
                    0.0
                ],
                [
                    -2.45275561,
                    4.24829848,
                    0.0
                ],
                [
                    0.0,
                    0.0,
                    7.62663224
                ]
            ],
            "a": 4.90551221,
            "b": 4.90551221153885,
            "c": 7.62663224,
            "alpha": 90.0,
            "beta": 90.0,
            "gamma": 119.99999331367682,
            "volume": 158.93962651068978
        },
        "sites": [
            {
                "species": [
                    {
                        "element": "Hg",
                        "occu": 1
                    }
                ],
                "abc": [
                    0.0,
                    0.0,
                    0.83200464
                ],
                "xyz": [
                    0.0,
                    0.0,
                    6.3453934112535935
                ],
                "label": "Hg",
                "properties": {}
            },
            {
                "species": [
                    {
                        "element": "Hg",
                        "occu": 1
                    }
                ],
                "abc": [
                    0.0,
                    0.0,
                    0.16799536
                ],
                "xyz": [
                    0.0,
                    0.0,
                    1.2812388287464065
                ],
                "label": "Hg",
                "properties": {}
            },
            {
                "species": [
                    {
                        "element": "As",
                        "occu": 1
                    }
                ],
                "abc": [
                    0.333333,
                    0.666667,
                    0.5
                ],
                "xyz": [
                    -2.122755940137111e-06,
                    2.83220040276616,
                    3.81331612
                ],
                "label": "As",
                "properties": {}
            },
            {
                "species": [
                    {
                        "element": "As",
                        "occu": 1
                    }
                ],
                "abc": [
                    0.666667,
                    0.333333,
                    0.5
                ],
                "xyz": [
                    2.45275872275594,
                    1.4160980772338398,
                    3.81331612
                ],
                "label": "As",
                "properties": {}
            },
            {
                "species": [
                    {
                        "element": "O",
                        "occu": 1
                    }
                ],
                "abc": [
                    0.3791729,
                    0.0,
                    0.63635552
                ],
                "xyz": [
                    1.8600372906511091,
                    0.0,
                    4.853249524933965
                ],
                "label": "O",
                "properties": {}
            },
            {
                "species": [
                    {
                        "element": "O",
                        "occu": 1
                    }
                ],
                "abc": [
                    0.0,
                    0.3791729,
                    0.63635552
                ],
                "xyz": [
                    -0.9300184576349689,
                    1.610839654727192,
                    4.853249524933965
                ],
                "label": "O",
                "properties": {}
            },
            {
                "species": [
                    {
                        "element": "O",
                        "occu": 1
                    }
                ],
                "abc": [
                    0.6208271,
                    0.6208271,
                    0.63635552
                ],
                "xyz": [
                    1.5227377669838602,
                    2.637458825272808,
                    4.853249524933965
                ],
                "label": "O",
                "properties": {}
            },
            {
                "species": [
                    {
                        "element": "O",
                        "occu": 1
                    }
                ],
                "abc": [
                    0.0,
                    0.6208271,
                    0.36364448
                ],
                "xyz": [
                    -1.522737152365031,
                    2.637458825272808,
                    2.773382715066035
                ],
                "label": "O",
                "properties": {}
            },
            {
                "species": [
                    {
                        "element": "O",
                        "occu": 1
                    }
                ],
                "abc": [
                    0.3791729,
                    0.3791729,
                    0.36364448
                ],
                "xyz": [
                    0.9300188330161402,
                    1.610839654727192,
                    2.773382715066035
                ],
                "label": "O",
                "properties": {}
            },
            {
                "species": [
                    {
                        "element": "O",
                        "occu": 1
                    }
                ],
                "abc": [
                    0.6208271,
                    0.0,
                    0.36364448
                ],
                "xyz": [
                    3.0454749193488913,
                    0.0,
                    2.773382715066035
                ],
                "label": "O",
                "properties": {}
            }
        ]
    },
    "spacegroup": {
        "source": "spglib",
        "symbol": "P-31m",
        "number": 162,
        "point_group": "-3m",
        "crystal_system": "trigonal",
        "hall": "-P 3 2"
    },
    "dielectric": {
        "epsilon_ionic": [
            [
                7.64518306,
                0.0,
                0.00010832
            ],
            [
                0.0,
                7.64522127,
                3e-08
            ],
            [
                0.00010832,
                3e-08,
                7.02768913
            ]
        ],
        "epsilon_ionic_avg": 7.439364486666663,
        "epsilon_ionic_eig": [
            7.02768911099864,
            7.64518307900135,
            7.645221270000001
        ],
        "epsilon_electronic": [
            [
                4.11625173,
                0.0,
                0.0
            ],
            [
                0.0,
                4.11625171,
                -0.0
            ],
            [
                0.0,
                -0.0,
                5.83724996
            ]
        ],
        "epsilon_electronic_avg": 4.6899178,
        "epsilon_electronic_eig": [
            4.11625173,
            4.11625171,
            5.83724996
        ]
    },
    "phonon": {
        "lowest_freq": -0.036501341346886436,
        "frequency": [
            -0.036501341346886436,
            -0.03650134124645171,
            -0.010475927450573132,
            0.9285725668696359,
            0.928572569501634,
            2.220241032672531,
            2.220241038176441,
            3.1566130573148845,
            5.698974812439433,
            5.8949988557195345,
            7.219715092190418,
            7.2197151091163025,
            9.364682520371264,
            10.186788324403862,
            10.186788336399799,
            10.47437341469953,
            11.697879910541953,
            11.69787993143464,
            15.271382148587467,
            15.271382164591268,
            15.4754546548099,
            15.475454670602659,
            17.10622279225867,
            17.10622279225867,
            18.630686451823077,
            19.210549579686283,
            20.306286975064516,
            20.890645344915836,
            21.319096450458236,
            21.319096450458236
        ]
    },
    "born_effective_charge": {
        "avg_abs_trace": 2.588805666666667,
        "tensors": [
            [
                [
                    1.56615,
                    0.0,
                    6e-05
                ],
                [
                    -3e-05,
                    1.56628,
                    0.00013
                ],
                [
                    -0.0,
                    -0.0,
                    2.64519
                ]
            ],
            [
                [
                    1.56627,
                    0.0,
                    1e-05
                ],
                [
                    3e-05,
                    1.56628,
                    -0.00013
                ],
                [
                    -0.0,
                    0.0,
                    2.64345
                ]
            ],
            [
                [
                    4.96205,
                    -0.00013,
                    -0.00013
                ],
                [
                    0.0,
                    4.96206,
                    -0.0
                ],
                [
                    0.0,
                    -0.0,
                    3.71533
                ]
            ],
            [
                [
                    4.96205,
                    0.00013,
                    -0.00013
                ],
                [
                    -0.0,
                    4.96165,
                    -0.0
                ],
                [
                    -0.0,
                    -0.0,
                    3.71533
                ]
            ],
            [
                [
                    -1.96347,
                    0.0,
                    0.80396
                ],
                [
                    0.00027,
                    -2.38889,
                    -0.0
                ],
                [
                    0.87271,
                    -0.0,
                    -2.12001
                ]
            ],
            [
                [
                    -2.28247,
                    -0.18439,
                    -0.40191
                ],
                [
                    -0.18434,
                    -2.06953,
                    0.6963
                ],
                [
                    -0.43635,
                    0.75579,
                    -2.12001
                ]
            ],
            [
                [
                    -2.28247,
                    0.18439,
                    -0.40191
                ],
                [
                    0.18411,
                    -2.06971,
                    -0.69626
                ],
                [
                    -0.43635,
                    -0.75579,
                    -2.12001
                ]
            ],
            [
                [
                    -2.28232,
                    -0.18429,
                    -0.40198
                ],
                [
                    -0.18411,
                    -2.06971,
                    0.69626
                ],
                [
                    -0.43615,
                    0.75544,
                    -2.11976
                ]
            ],
            [
                [
                    -2.28232,
                    0.18429,
                    -0.40198
                ],
                [
                    0.18434,
                    -2.06953,
                    -0.6963
                ],
                [
                    -0.43615,
                    -0.75544,
                    -2.11976
                ]
            ],
            [
                [
                    -1.96346,
                    0.0,
                    0.80403
                ],
                [
                    -0.00027,
                    -2.38889,
                    0.0
                ],
                [
                    0.87231,
                    0.0,
                    -2.11976
                ]
            ]
        ]
    },
    "band_gap": 1.1724999999999999,
    "is_direct": false,
    "formula": "HgAsO3"
}