{
    "mp_id": "mp-3952",
    "nelements": 3,
    "nsites": 28,
    "elements": [
        "Ba",
        "O",
        "Y"
    ],
    "structure": {
        "@module": "pymatgen.core.structure",
        "@class": "Structure",
        "charge": null,
        "lattice": {
            "matrix": [
                [
                    10.34463975,
                    0.0,
                    0.0
                ],
                [
                    0.0,
                    3.43984825,
                    0.0
                ],
                [
                    0.0,
                    0.0,
                    12.05003772
                ]
            ],
            "a": 10.34463975,
            "b": 3.43984825,
            "c": 12.05003772,
            "alpha": 90.0,
            "beta": 90.0,
            "gamma": 90.0,
            "volume": 428.78843306619945
        },
        "sites": [
            {
                "species": [
                    {
                        "element": "Ba",
                        "occu": 1
                    }
                ],
                "abc": [
                    0.75290096,
                    0.25,
                    0.35042371
                ],
                "xyz": [
                    7.7884891986291604,
                    0.8599620625,
                    4.222618923482341
                ],
                "label": "Ba",
                "properties": {}
            },
            {
                "species": [
                    {
                        "element": "Ba",
                        "occu": 1
                    }
                ],
                "abc": [
                    0.24709904,
                    0.75,
                    0.64957629
                ],
                "xyz": [
                    2.5561505513708402,
                    2.5798861874999997,
                    7.827418796517659
                ],
                "label": "Ba",
                "properties": {}
            },
            {
                "species": [
                    {
                        "element": "Ba",
                        "occu": 1
                    }
                ],
                "abc": [
                    0.25290096,
                    0.25,
                    0.14957629
                ],
                "xyz": [
                    2.61616932362916,
                    0.8599620625,
                    1.8023999365176588
                ],
                "label": "Ba",
                "properties": {}
            },
            {
                "species": [
                    {
                        "element": "Ba",
                        "occu": 1
                    }
                ],
                "abc": [
                    0.74709904,
                    0.75,
                    0.85042371
                ],
                "xyz": [
                    7.728470426370841,
                    2.5798861874999997,
                    10.247637783482343
                ],
                "label": "Ba",
                "properties": {}
            },
            {
                "species": [
                    {
                        "element": "Y",
                        "occu": 1
                    }
                ],
                "abc": [
                    0.42561649,
                    0.25,
                    0.38932246
                ],
                "xyz": [
                    4.402849260709478,
                    0.8599620625,
                    4.691350328243192
                ],
                "label": "Y",
                "properties": {}
            },
            {
                "species": [
                    {
                        "element": "Y",
                        "occu": 1
                    }
                ],
                "abc": [
                    0.57438351,
                    0.75,
                    0.61067754
                ],
                "xyz": [
                    5.941790489290523,
                    2.5798861874999997,
                    7.358687391756809
                ],
                "label": "Y",
                "properties": {}
            },
            {
                "species": [
                    {
                        "element": "Y",
                        "occu": 1
                    }
                ],
                "abc": [
                    0.92561649,
                    0.25,
                    0.11067754
                ],
                "xyz": [
                    9.575169135709478,
                    0.8599620625,
                    1.3336685317568089
                ],
                "label": "Y",
                "properties": {}
            },
            {
                "species": [
                    {
                        "element": "Y",
                        "occu": 1
                    }
                ],
                "abc": [
                    0.07438351,
                    0.75,
                    0.88932246
                ],
                "xyz": [
                    0.7694706142905225,
                    2.5798861874999997,
                    10.716369188243192
                ],
                "label": "Y",
                "properties": {}
            },
            {
                "species": [
                    {
                        "element": "Y",
                        "occu": 1
                    }
                ],
                "abc": [
                    0.07742625,
                    0.75,
                    0.39088243
                ],
                "xyz": [
                    0.8009466634434376,
                    2.5798861874999997,
                    4.7101480255852595
                ],
                "label": "Y",
                "properties": {}
            },
            {
                "species": [
                    {
                        "element": "Y",
                        "occu": 1
                    }
                ],
                "abc": [
                    0.92257375,
                    0.25,
                    0.60911757
                ],
                "xyz": [
                    9.543693086556562,
                    0.8599620625,
                    7.339889694414741
                ],
                "label": "Y",
                "properties": {}
            },
            {
                "species": [
                    {
                        "element": "Y",
                        "occu": 1
                    }
                ],
                "abc": [
                    0.57742625,
                    0.75,
                    0.10911757
                ],
                "xyz": [
                    5.973266538443438,
                    2.5798861874999997,
                    1.3148708344147404
                ],
                "label": "Y",
                "properties": {}
            },
            {
                "species": [
                    {
                        "element": "Y",
                        "occu": 1
                    }
                ],
                "abc": [
                    0.42257375,
                    0.25,
                    0.89088243
                ],
                "xyz": [
                    4.371373211556563,
                    0.8599620625,
                    10.73516688558526
                ],
                "label": "Y",
                "properties": {}
            },
            {
                "species": [
                    {
                        "element": "O",
                        "occu": 1
                    }
                ],
                "abc": [
                    0.29018309,
                    0.75,
                    0.3402848
                ],
                "xyz": [
                    3.0018395275918275,
                    2.5798861874999997,
                    4.100444675542656
                ],
                "label": "O",
                "properties": {}
            },
            {
                "species": [
                    {
                        "element": "O",
                        "occu": 1
                    }
                ],
                "abc": [
                    0.70981691,
                    0.25,
                    0.6597152
                ],
                "xyz": [
                    7.342800222408173,
                    0.8599620625,
                    7.949593044457344
                ],
                "label": "O",
                "properties": {}
            },
            {
                "species": [
                    {
                        "element": "O",
                        "occu": 1
                    }
                ],
                "abc": [
                    0.79018309,
                    0.75,
                    0.1597152
                ],
                "xyz": [
                    8.174159402591828,
                    2.5798861874999997,
                    1.924574184457344
                ],
                "label": "O",
                "properties": {}
            },
            {
                "species": [
                    {
                        "element": "O",
                        "occu": 1
                    }
                ],
                "abc": [
                    0.20981691,
                    0.25,
                    0.8402848
                ],
                "xyz": [
                    2.1704803474081724,
                    0.8599620625,
                    10.125463535542657
                ],
                "label": "O",
                "properties": {}
            },
            {
                "species": [
                    {
                        "element": "O",
                        "occu": 1
                    }
                ],
                "abc": [
                    0.38396663,
                    0.75,
                    0.01769743
                ],
                "xyz": [
                    3.9719964633715423,
                    2.5798861874999997,
                    0.21325469904705963
                ],
                "label": "O",
                "properties": {}
            },
            {
                "species": [
                    {
                        "element": "O",
                        "occu": 1
                    }
                ],
                "abc": [
                    0.61603337,
                    0.25,
                    0.98230257
                ],
                "xyz": [
                    6.372643286628458,
                    0.8599620625,
                    11.836783020952941
                ],
                "label": "O",
                "properties": {}
            },
            {
                "species": [
                    {
                        "element": "O",
                        "occu": 1
                    }
                ],
                "abc": [
                    0.88396663,
                    0.75,
                    0.48230257
                ],
                "xyz": [
                    9.144316338371542,
                    2.5798861874999997,
                    5.811764160952941
                ],
                "label": "O",
                "properties": {}
            },
            {
                "species": [
                    {
                        "element": "O",
                        "occu": 1
                    }
                ],
                "abc": [
                    0.11603337,
                    0.25,
                    0.51769743
                ],
                "xyz": [
                    1.2003234116284576,
                    0.8599620625,
                    6.23827355904706
                ],
                "label": "O",
                "properties": {}
            },
            {
                "species": [
                    {
                        "element": "O",
                        "occu": 1
                    }
                ],
                "abc": [
                    0.98183275,
                    0.75,
                    0.71721447
                ],
                "xyz": [
                    10.156706093501814,
                    2.5798861874999997,
                    8.642461416829809
                ],
                "label": "O",
                "properties": {}
            },
            {
                "species": [
                    {
                        "element": "O",
                        "occu": 1
                    }
                ],
                "abc": [
                    0.01816725,
                    0.25,
                    0.28278553
                ],
                "xyz": [
                    0.1879336564981875,
                    0.8599620625,
                    3.407576303170192
                ],
                "label": "O",
                "properties": {}
            },
            {
                "species": [
                    {
                        "element": "O",
                        "occu": 1
                    }
                ],
                "abc": [
                    0.48183275,
                    0.75,
                    0.78278553
                ],
                "xyz": [
                    4.984386218501813,
                    2.5798861874999997,
                    9.432595163170191
                ],
                "label": "O",
                "properties": {}
            },
            {
                "species": [
                    {
                        "element": "O",
                        "occu": 1
                    }
                ],
                "abc": [
                    0.51816725,
                    0.25,
                    0.21721447
                ],
                "xyz": [
                    5.360253531498188,
                    0.8599620625,
                    2.6174425568298085
                ],
                "label": "O",
                "properties": {}
            },
            {
                "species": [
                    {
                        "element": "O",
                        "occu": 1
                    }
                ],
                "abc": [
                    0.06988773,
                    0.75,
                    0.07452246
                ],
                "xyz": [
                    0.7229633897952675,
                    2.5798861874999997,
                    0.8979984539871912
                ],
                "label": "O",
                "properties": {}
            },
            {
                "species": [
                    {
                        "element": "O",
                        "occu": 1
                    }
                ],
                "abc": [
                    0.93011227,
                    0.25,
                    0.92547754
                ],
                "xyz": [
                    9.621676360204733,
                    0.8599620625,
                    11.15203926601281
                ],
                "label": "O",
                "properties": {}
            },
            {
                "species": [
                    {
                        "element": "O",
                        "occu": 1
                    }
                ],
                "abc": [
                    0.56988773,
                    0.75,
                    0.42547754
                ],
                "xyz": [
                    5.895283264795268,
                    2.5798861874999997,
                    5.127020406012809
                ],
                "label": "O",
                "properties": {}
            },
            {
                "species": [
                    {
                        "element": "O",
                        "occu": 1
                    }
                ],
                "abc": [
                    0.43011227,
                    0.25,
                    0.57452246
                ],
                "xyz": [
                    4.449356485204733,
                    0.8599620625,
                    6.923017313987191
                ],
                "label": "O",
                "properties": {}
            }
        ]
    },
    "spacegroup": {
        "source": "spglib",
        "symbol": "Pnma",
        "number": 62,
        "point_group": "mmm",
        "crystal_system": "orthorhombic",
        "hall": "-P 2ac 2n"
    },
    "dielectric": {
        "epsilon_ionic": [
            [
                13.2792407,
                1e-08,
                0.0
            ],
            [
                1e-08,
                14.62279266,
                0.0
            ],
            [
                0.0,
                0.0,
                13.25242994
            ]
        ],
        "epsilon_ionic_avg": 13.718154433333334,
        "epsilon_ionic_eig": [
            13.2792407,
            14.62279266,
            13.25242994
        ],
        "epsilon_electronic": [
            [
                4.3388631,
                0.0,
                0.0
            ],
            [
                0.0,
                4.46679784,
                0.0
            ],
            [
                0.0,
                0.0,
                4.36555443
            ]
        ],
        "epsilon_electronic_avg": 4.390405123333333,
        "epsilon_electronic_eig": [
            4.3388631,
            4.46679784,
            4.36555443
        ]
    },
    "phonon": {
        "lowest_freq": -0.05723483938805209,
        "frequency": [
            -0.05723483938805209,
            -0.023261229022340374,
            -0.012406203686193695,
            1.767296383206929,
            2.034293795366871,
            2.1620214311999324,
            2.301879557475684,
            2.4021472368268526,
            2.4239234910095178,
            2.4824170555071534,
            2.542610988516669,
            2.8492615437886055,
            2.8875507164777106,
            2.9288723314192113,
            3.0882127415120126,
            3.091140348564782,
            3.279763669840461,
            3.3328362313745914,
            3.3576590029228526,
            3.6703791858054946,
            3.7335691519640672,
            3.912547656525971,
            3.9419409463986153,
            4.2491255937867765,
            4.274772348624996,
            4.507052763666217,
            4.877735874594321,
            5.001164365316191,
            5.470251381269389,
            5.724563218832097,
            5.99064152907026,
            6.10276990113519,
            6.1373451462806745,
            6.1388779747030116,
            6.470212852609408,
            6.51358292537038,
            6.665876745049913,
            7.2632826160977935,
            7.33835575335318,
            7.77094331704185,
            7.813548299365849,
            7.833287140645587,
            8.196185388060774,
            8.28007838037451,
            8.39791868383966,
            8.635551725523566,
            8.679028028309856,
            8.724627347923468,
            8.755663425250393,
            8.820626428494812,
            9.003381196900445,
            9.348966568492846,
            9.496125195134125,
            9.599802068599008,
            9.706940025970102,
            9.858584610990151,
            9.86787760725825,
            9.924040870248712,
            9.954346142419942,
            10.584888932477378,
            10.733394864463985,
            10.878761814595872,
            10.920995300511473,
            11.093866466092035,
            11.150712365129769,
            11.20523947907243,
            11.271202154669076,
            11.285660238248747,
            11.28859941537778,
            11.842829261706674,
            12.143395938860573,
            12.526327009153134,
            12.551212774892608,
            13.66851682610365,
            13.989803411640573,
            14.109946688012364,
            14.22107487992211,
            15.757492585546197,
            15.834737225726277,
            16.044712531029138,
            16.595631788427642,
            16.764151754267775,
            16.80078606569755,
            16.879557210305506
        ]
    },
    "born_effective_charge": {
        "avg_abs_trace": 2.925299047619048,
        "tensors": [
            [
                [
                    2.87228,
                    -0.0,
                    0.09863
                ],
                [
                    6e-05,
                    2.52984,
                    -0.00035
                ],
                [
                    0.08187,
                    -0.0,
                    2.57496
                ]
            ],
            [
                [
                    2.87226,
                    -0.0,
                    0.09863
                ],
                [
                    -6e-05,
                    2.52984,
                    0.00035
                ],
                [
                    0.08186,
                    0.0,
                    2.57496
                ]
            ],
            [
                [
                    2.87228,
                    -0.0,
                    -0.09863
                ],
                [
                    6e-05,
                    2.52984,
                    0.00035
                ],
                [
                    -0.08186,
                    0.0,
                    2.57496
                ]
            ],
            [
                [
                    2.87226,
                    -0.0,
                    -0.09863
                ],
                [
                    -6e-05,
                    2.52984,
                    -0.00035
                ],
                [
                    -0.08187,
                    0.0,
                    2.57496
                ]
            ],
            [
                [
                    3.5161,
                    -0.0,
                    0.13899
                ],
                [
                    7e-05,
                    3.98215,
                    2e-05
                ],
                [
                    0.14278,
                    0.0,
                    3.96212
                ]
            ],
            [
                [
                    3.51635,
                    0.0,
                    0.13891
                ],
                [
                    -7e-05,
                    3.98215,
                    -2e-05
                ],
                [
                    0.1428,
                    0.0,
                    3.96202
                ]
            ],
            [
                [
                    3.5161,
                    -0.0,
                    -0.13899
                ],
                [
                    7e-05,
                    3.98215,
                    -2e-05
                ],
                [
                    -0.1428,
                    -0.0,
                    3.96202
                ]
            ],
            [
                [
                    3.51635,
                    0.0,
                    -0.13891
                ],
                [
                    -7e-05,
                    3.98215,
                    2e-05
                ],
                [
                    -0.14278,
                    0.0,
                    3.96212
                ]
            ],
            [
                [
                    3.57188,
                    0.0,
                    -0.21946
                ],
                [
                    0.00025,
                    4.12945,
                    0.00018
                ],
                [
                    -0.14427,
                    0.0,
                    3.57684
                ]
            ],
            [
                [
                    3.57181,
                    0.0,
                    -0.21951
                ],
                [
                    -0.00025,
                    4.12945,
                    -0.00018
                ],
                [
                    -0.14422,
                    0.0,
                    3.57684
                ]
            ],
            [
                [
                    3.57188,
                    -0.0,
                    0.21946
                ],
                [
                    0.00025,
                    4.12945,
                    -0.00018
                ],
                [
                    0.14422,
                    -0.0,
                    3.57684
                ]
            ],
            [
                [
                    3.57181,
                    -0.0,
                    0.21951
                ],
                [
                    -0.00025,
                    4.12945,
                    0.00018
                ],
                [
                    0.14427,
                    0.0,
                    3.57684
                ]
            ],
            [
                [
                    -2.9114,
                    -0.0,
                    -0.08359
                ],
                [
                    -0.00068,
                    -2.69204,
                    -0.00023
                ],
                [
                    -0.08496,
                    0.0,
                    -2.10179
                ]
            ],
            [
                [
                    -2.9114,
                    -0.0,
                    -0.08353
                ],
                [
                    0.00068,
                    -2.69204,
                    0.00023
                ],
                [
                    -0.08496,
                    0.0,
                    -2.10179
                ]
            ],
            [
                [
                    -2.9114,
                    -0.0,
                    0.08359
                ],
                [
                    -0.00068,
                    -2.69204,
                    0.00023
                ],
                [
                    0.08496,
                    0.0,
                    -2.10179
                ]
            ],
            [
                [
                    -2.9114,
                    -0.0,
                    0.08353
                ],
                [
                    0.00068,
                    -2.69204,
                    -0.00023
                ],
                [
                    0.08496,
                    0.0,
                    -2.10179
                ]
            ],
            [
                [
                    -2.38801,
                    -0.0,
                    0.11185
                ],
                [
                    0.00012,
                    -2.71424,
                    0.00018
                ],
                [
                    0.11501,
                    0.0,
                    -2.53251
                ]
            ],
            [
                [
                    -2.388,
                    -0.0,
                    0.11183
                ],
                [
                    -0.00012,
                    -2.71424,
                    -0.00018
                ],
                [
                    0.11499,
                    0.0,
                    -2.53243
                ]
            ],
            [
                [
                    -2.38801,
                    -0.0,
                    -0.11185
                ],
                [
                    0.00012,
                    -2.71424,
                    -0.00018
                ],
                [
                    -0.11499,
                    -0.0,
                    -2.53243
                ]
            ],
            [
                [
                    -2.388,
                    -0.0,
                    -0.11183
                ],
                [
                    -0.00012,
                    -2.71424,
                    0.00018
                ],
                [
                    -0.11501,
                    0.0,
                    -2.53251
                ]
            ],
            [
                [
                    -2.17564,
                    -0.0,
                    -0.28736
                ],
                [
                    0.00037,
                    -2.50154,
                    0.0007
                ],
                [
                    -0.4031,
                    0.0,
                    -2.99079
                ]
            ],
            [
                [
                    -2.1756,
                    -0.0,
                    -0.28737
                ],
                [
                    -0.00037,
                    -2.50154,
                    -0.0007
                ],
                [
                    -0.40307,
                    0.0,
                    -2.99081
                ]
            ],
            [
                [
                    -2.17564,
                    -0.0,
                    0.28736
                ],
                [
                    0.00037,
                    -2.50154,
                    -0.0007
                ],
                [
                    0.40307,
                    0.0,
                    -2.99081
                ]
            ],
            [
                [
                    -2.1756,
                    -0.0,
                    0.28737
                ],
                [
                    -0.00037,
                    -2.50154,
                    0.0007
                ],
                [
                    0.4031,
                    -0.0,
                    -2.99079
                ]
            ],
            [
                [
                    -2.48531,
                    -0.0,
                    -0.14099
                ],
                [
                    0.00029,
                    -2.73361,
                    -0.00031
                ],
                [
                    0.0219,
                    0.0,
                    -2.48876
                ]
            ],
            [
                [
                    -2.48532,
                    -0.0,
                    -0.14101
                ],
                [
                    -0.00029,
                    -2.73361,
                    0.00031
                ],
                [
                    0.02194,
                    0.0,
                    -2.48884
                ]
            ],
            [
                [
                    -2.48531,
                    -0.0,
                    0.14099
                ],
                [
                    0.00029,
                    -2.73361,
                    0.00031
                ],
                [
                    -0.02194,
                    -0.0,
                    -2.48884
                ]
            ],
            [
                [
                    -2.48532,
                    -0.0,
                    0.14101
                ],
                [
                    -0.00029,
                    -2.73361,
                    -0.00031
                ],
                [
                    -0.0219,
                    0.0,
                    -2.48876
                ]
            ]
        ]
    },
    "band_gap": 3.2013999999999996,
    "is_direct": true,
    "formula": "BaY2O4"
}