{
    "mp_id": "mp-3889",
    "nelements": 3,
    "nsites": 24,
    "elements": [
        "B",
        "Na",
        "O"
    ],
    "structure": {
        "@module": "pymatgen.core.structure",
        "@class": "Structure",
        "charge": null,
        "lattice": {
            "matrix": [
                [
                    5.90502649,
                    3.4092687,
                    2.10369802
                ],
                [
                    -5.90502649,
                    3.4092687,
                    2.10369802
                ],
                [
                    0.0,
                    -6.81853741,
                    2.10369802
                ]
            ],
            "a": 7.135684709665452,
            "b": 7.135684709665452,
            "c": 7.13568481443242,
            "alpha": 111.69263260124475,
            "beta": 111.69263260124475,
            "gamma": 111.69263124906482,
            "volume": 254.10764454182134
        },
        "sites": [
            {
                "species": [
                    {
                        "element": "Na",
                        "occu": 1
                    }
                ],
                "abc": [
                    0.25,
                    0.81302442,
                    0.68697558
                ],
                "xyz": [
                    -3.3246741146168857,
                    -1.0600328095447944,
                    3.681471535
                ],
                "label": "Na",
                "properties": {}
            },
            {
                "species": [
                    {
                        "element": "Na",
                        "occu": 1
                    }
                ],
                "abc": [
                    0.81302442,
                    0.68697558,
                    0.25
                ],
                "xyz": [
                    0.7443217392337713,
                    3.4092686975,
                    3.681471535
                ],
                "label": "Na",
                "properties": {}
            },
            {
                "species": [
                    {
                        "element": "Na",
                        "occu": 1
                    }
                ],
                "abc": [
                    0.68697558,
                    0.25,
                    0.81302442
                ],
                "xyz": [
                    2.5803523753831143,
                    -2.349235905455206,
                    3.681471535
                ],
                "label": "Na",
                "properties": {}
            },
            {
                "species": [
                    {
                        "element": "Na",
                        "occu": 1
                    }
                ],
                "abc": [
                    0.75,
                    0.18697558,
                    0.31302442
                ],
                "xyz": [
                    3.3246741146168857,
                    1.0600327995447936,
                    2.6296225250000003
                ],
                "label": "Na",
                "properties": {}
            },
            {
                "species": [
                    {
                        "element": "Na",
                        "occu": 1
                    }
                ],
                "abc": [
                    0.18697558,
                    0.31302442,
                    0.75
                ],
                "xyz": [
                    -0.7443217392337718,
                    -3.4092687075,
                    2.6296225250000003
                ],
                "label": "Na",
                "properties": {}
            },
            {
                "species": [
                    {
                        "element": "Na",
                        "occu": 1
                    }
                ],
                "abc": [
                    0.31302442,
                    0.75,
                    0.18697558
                ],
                "xyz": [
                    -2.580352375383114,
                    2.349235895455206,
                    2.629622525
                ],
                "label": "Na",
                "properties": {}
            },
            {
                "species": [
                    {
                        "element": "B",
                        "occu": 1
                    }
                ],
                "abc": [
                    0.75,
                    0.87219759,
                    0.62780241
                ],
                "xyz": [
                    -0.7215800059641593,
                    1.2498132501292751,
                    4.733320545
                ],
                "label": "B",
                "properties": {}
            },
            {
                "species": [
                    {
                        "element": "B",
                        "occu": 1
                    }
                ],
                "abc": [
                    0.25,
                    0.12780241,
                    0.37219759
                ],
                "xyz": [
                    0.721580005964159,
                    -1.2498132601292749,
                    1.577773515
                ],
                "label": "B",
                "properties": {}
            },
            {
                "species": [
                    {
                        "element": "B",
                        "occu": 1
                    }
                ],
                "abc": [
                    0.12780241,
                    0.37219759,
                    0.25
                ],
                "xyz": [
                    -1.443160011928318,
                    -2.4999997627617176e-09,
                    1.577773515
                ],
                "label": "B",
                "properties": {}
            },
            {
                "species": [
                    {
                        "element": "B",
                        "occu": 1
                    }
                ],
                "abc": [
                    0.37219759,
                    0.25,
                    0.12780241
                ],
                "xyz": [
                    0.721580005964159,
                    1.249813255129275,
                    1.577773515
                ],
                "label": "B",
                "properties": {}
            },
            {
                "species": [
                    {
                        "element": "B",
                        "occu": 1
                    }
                ],
                "abc": [
                    0.87219759,
                    0.62780241,
                    0.75
                ],
                "xyz": [
                    1.443160011928318,
                    -7.499999732374363e-09,
                    4.733320545
                ],
                "label": "B",
                "properties": {}
            },
            {
                "species": [
                    {
                        "element": "B",
                        "occu": 1
                    }
                ],
                "abc": [
                    0.62780241,
                    0.75,
                    0.87219759
                ],
                "xyz": [
                    -0.7215800059641588,
                    -1.2498132651292746,
                    4.733320545
                ],
                "label": "B",
                "properties": {}
            },
            {
                "species": [
                    {
                        "element": "O",
                        "occu": 1
                    }
                ],
                "abc": [
                    0.86771379,
                    0.75,
                    0.63228621
                ],
                "xyz": [
                    0.6951030481882974,
                    1.203953813093257,
                    4.733320545
                ],
                "label": "O",
                "properties": {}
            },
            {
                "species": [
                    {
                        "element": "O",
                        "occu": 1
                    }
                ],
                "abc": [
                    0.63228621,
                    0.86771379,
                    0.75
                ],
                "xyz": [
                    -1.3902060963765943,
                    -7.499999732374363e-09,
                    4.733320545
                ],
                "label": "O",
                "properties": {}
            },
            {
                "species": [
                    {
                        "element": "O",
                        "occu": 1
                    }
                ],
                "abc": [
                    0.25,
                    0.36771379,
                    0.13228621
                ],
                "xyz": [
                    -0.6951030481882972,
                    1.203953818093257,
                    1.577773515
                ],
                "label": "O",
                "properties": {}
            },
            {
                "species": [
                    {
                        "element": "O",
                        "occu": 1
                    }
                ],
                "abc": [
                    0.75,
                    0.63228621,
                    0.86771379
                ],
                "xyz": [
                    0.6951030481882969,
                    -1.2039538280932573,
                    4.733320545
                ],
                "label": "O",
                "properties": {}
            },
            {
                "species": [
                    {
                        "element": "O",
                        "occu": 1
                    }
                ],
                "abc": [
                    0.13228621,
                    0.25,
                    0.36771379
                ],
                "xyz": [
                    -0.6951030481882972,
                    -1.2039538230932567,
                    1.577773515
                ],
                "label": "O",
                "properties": {}
            },
            {
                "species": [
                    {
                        "element": "O",
                        "occu": 1
                    }
                ],
                "abc": [
                    0.36771379,
                    0.13228621,
                    0.25
                ],
                "xyz": [
                    1.3902060963765943,
                    -2.4999999848063226e-09,
                    1.577773515
                ],
                "label": "O",
                "properties": {}
            },
            {
                "species": [
                    {
                        "element": "O",
                        "occu": 1
                    }
                ],
                "abc": [
                    0.51650064,
                    0.75,
                    0.98349936
                ],
                "xyz": [
                    -1.3788199061980464,
                    -2.3881861883890902,
                    4.733320545
                ],
                "label": "O",
                "properties": {}
            },
            {
                "species": [
                    {
                        "element": "O",
                        "occu": 1
                    }
                ],
                "abc": [
                    0.98349936,
                    0.51650064,
                    0.75
                ],
                "xyz": [
                    2.7576398123960937,
                    -7.499999732374363e-09,
                    4.733320545
                ],
                "label": "O",
                "properties": {}
            },
            {
                "species": [
                    {
                        "element": "O",
                        "occu": 1
                    }
                ],
                "abc": [
                    0.75,
                    0.98349936,
                    0.51650064
                ],
                "xyz": [
                    -1.3788199061980473,
                    2.3881861733890903,
                    4.733320545
                ],
                "label": "O",
                "properties": {}
            },
            {
                "species": [
                    {
                        "element": "O",
                        "occu": 1
                    }
                ],
                "abc": [
                    0.48349936,
                    0.25,
                    0.01650064
                ],
                "xyz": [
                    1.3788199061980462,
                    2.38818617838909,
                    1.5777735149999998
                ],
                "label": "O",
                "properties": {}
            },
            {
                "species": [
                    {
                        "element": "O",
                        "occu": 1
                    }
                ],
                "abc": [
                    0.01650064,
                    0.48349936,
                    0.25
                ],
                "xyz": [
                    -2.757639812396093,
                    -2.4999999848063226e-09,
                    1.577773515
                ],
                "label": "O",
                "properties": {}
            },
            {
                "species": [
                    {
                        "element": "O",
                        "occu": 1
                    }
                ],
                "abc": [
                    0.25,
                    0.01650064,
                    0.48349936
                ],
                "xyz": [
                    1.3788199061980464,
                    -2.3881861833890894,
                    1.577773515
                ],
                "label": "O",
                "properties": {}
            }
        ]
    },
    "spacegroup": {
        "source": "spglib",
        "symbol": "R-3c",
        "number": 167,
        "point_group": "-3m",
        "crystal_system": "trigonal",
        "hall": "-R 3 2\"c"
    },
    "dielectric": {
        "epsilon_ionic": [
            [
                4.87753809,
                -1.4e-07,
                -0.0
            ],
            [
                -1.4e-07,
                4.87747656,
                -3.378e-05
            ],
            [
                -0.0,
                -3.378e-05,
                5.29626401
            ]
        ],
        "epsilon_ionic_avg": 5.017092886666667,
        "epsilon_ionic_eig": [
            4.877538090318527,
            4.877476556956731,
            5.296264012724743
        ],
        "epsilon_electronic": [
            [
                2.57556596,
                0.0,
                0.0
            ],
            [
                0.0,
                2.57556556,
                3.5e-07
            ],
            [
                0.0,
                3.5e-07,
                2.19767626
            ]
        ],
        "epsilon_electronic_avg": 2.449602593333333,
        "epsilon_electronic_eig": [
            2.197676259999676,
            2.575565560000324,
            2.57556596
        ]
    },
    "phonon": {
        "lowest_freq": -0.20785021079709112,
        "frequency": [
            -0.20785021079709112,
            -0.0431186130791586,
            -0.04311860979166692,
            1.3525557718473091,
            2.574261878483672,
            3.335554961027046,
            3.636507582181873,
            3.6365076527496165,
            3.8603816388258076,
            3.860381768610971,
            4.136760607286115,
            4.136760707722244,
            4.376248169730836,
            4.479708713308329,
            4.479708893346914,
            4.559900401879141,
            4.559900409918795,
            4.875662196677335,
            5.060638343282311,
            5.200054322863904,
            5.4722834527313,
            5.47228363137711,
            5.597136448668867,
            5.597136579664491,
            5.910737056750779,
            6.0401006153036185,
            6.063096449592075,
            6.330284222758056,
            6.5687861862618995,
            6.568786688546729,
            6.8608902875281,
            6.860890430016973,
            6.931474869621938,
            6.931475292735567,
            7.434174882388417,
            7.434175046764512,
            10.552280756834003,
            10.552281000023264,
            11.269777409361168,
            11.26977783224463,
            13.673788022833357,
            13.673788156885529,
            13.850468165025848,
            13.85046823560834,
            17.606291690324593,
            17.641292118895073,
            18.30880686523302,
            18.358707996270596,
            19.537397858872442,
            19.537397858872442,
            19.96038553655466,
            20.35646626944103,
            20.35646626944103,
            21.628604500982192,
            22.237809673666682,
            22.249021126656938,
            28.085782752874167,
            28.08578331849872,
            28.39631641233326,
            28.396317014806087,
            32.700068934853064,
            32.70109614450665,
            35.72820190097386,
            35.728203816324516,
            36.73262362862166,
            36.732625591401046,
            42.76916017654155,
            42.76916146228175,
            43.38527722989042,
            43.38527849737174,
            46.4288294013881,
            46.5146341852503
        ]
    },
    "born_effective_charge": {
        "avg_abs_trace": 1.4708805555555555,
        "tensors": [
            [
                [
                    1.17233,
                    0.0814,
                    -0.03491
                ],
                [
                    0.08141,
                    1.07832,
                    -0.02016
                ],
                [
                    0.00066,
                    0.00038,
                    1.01842
                ]
            ],
            [
                [
                    1.03133,
                    0.0,
                    -0.0
                ],
                [
                    -1e-05,
                    1.21932,
                    0.04031
                ],
                [
                    0.0,
                    -0.00076,
                    1.01842
                ]
            ],
            [
                [
                    1.17233,
                    -0.0814,
                    0.03491
                ],
                [
                    -0.0814,
                    1.07832,
                    -0.02015
                ],
                [
                    -0.00066,
                    0.00038,
                    1.01842
                ]
            ],
            [
                [
                    1.17232,
                    0.08141,
                    -0.03491
                ],
                [
                    0.0814,
                    1.07832,
                    -0.02015
                ],
                [
                    0.00066,
                    0.00038,
                    1.01842
                ]
            ],
            [
                [
                    1.03132,
                    0.0,
                    0.0
                ],
                [
                    1e-05,
                    1.21932,
                    0.04031
                ],
                [
                    -0.0,
                    -0.00076,
                    1.01842
                ]
            ],
            [
                [
                    1.17232,
                    -0.08141,
                    0.03491
                ],
                [
                    -0.08141,
                    1.07832,
                    -0.02016
                ],
                [
                    -0.00066,
                    0.00038,
                    1.01842
                ]
            ],
            [
                [
                    2.1963,
                    -0.35498,
                    0.01557
                ],
                [
                    -0.35492,
                    2.60625,
                    0.00901
                ],
                [
                    0.0083,
                    0.00478,
                    0.75363
                ]
            ],
            [
                [
                    2.19634,
                    -0.35514,
                    0.01556
                ],
                [
                    -0.35517,
                    2.6063,
                    0.00896
                ],
                [
                    0.00829,
                    0.0048,
                    0.75363
                ]
            ],
            [
                [
                    2.81134,
                    0.0,
                    -0.0
                ],
                [
                    -0.0002,
                    1.99131,
                    -0.01797
                ],
                [
                    1e-05,
                    -0.00958,
                    0.75363
                ]
            ],
            [
                [
                    2.19634,
                    0.35514,
                    -0.01556
                ],
                [
                    0.35492,
                    2.60625,
                    0.00901
                ],
                [
                    -0.0083,
                    0.00478,
                    0.75363
                ]
            ],
            [
                [
                    2.81119,
                    0.0,
                    0.0
                ],
                [
                    0.0002,
                    1.99131,
                    -0.01797
                ],
                [
                    -1e-05,
                    -0.00958,
                    0.75363
                ]
            ],
            [
                [
                    2.1963,
                    0.35498,
                    -0.01557
                ],
                [
                    0.35517,
                    2.6063,
                    0.00896
                ],
                [
                    -0.00829,
                    0.0048,
                    0.75363
                ]
            ],
            [
                [
                    -2.12893,
                    0.52875,
                    -0.01305
                ],
                [
                    0.52859,
                    -1.51806,
                    0.00758
                ],
                [
                    0.01071,
                    -0.00618,
                    -0.72993
                ]
            ],
            [
                [
                    -1.2131,
                    0.0,
                    -0.0
                ],
                [
                    0.00031,
                    -2.43421,
                    -0.01505
                ],
                [
                    -0.0,
                    0.01236,
                    -0.72993
                ]
            ],
            [
                [
                    -2.12892,
                    -0.52879,
                    0.01302
                ],
                [
                    -0.52859,
                    -1.51806,
                    0.00758
                ],
                [
                    -0.01071,
                    -0.00618,
                    -0.72993
                ]
            ],
            [
                [
                    -2.12893,
                    -0.52875,
                    0.01305
                ],
                [
                    -0.52894,
                    -1.51864,
                    0.00747
                ],
                [
                    -0.01071,
                    -0.00618,
                    -0.72993
                ]
            ],
            [
                [
                    -2.12892,
                    0.52879,
                    -0.01302
                ],
                [
                    0.52894,
                    -1.51864,
                    0.00747
                ],
                [
                    0.01071,
                    -0.00618,
                    -0.72993
                ]
            ],
            [
                [
                    -1.21302,
                    -0.0,
                    -0.0
                ],
                [
                    -0.00031,
                    -2.43421,
                    -0.01505
                ],
                [
                    0.0,
                    0.01236,
                    -0.72993
                ]
            ],
            [
                [
                    -1.43234,
                    -0.46861,
                    -0.04348
                ],
                [
                    -0.46915,
                    -1.97444,
                    0.02531
                ],
                [
                    0.00369,
                    -0.00213,
                    -1.04212
                ]
            ],
            [
                [
                    -2.24385,
                    -0.0,
                    0.0
                ],
                [
                    -0.00173,
                    -1.16168,
                    -0.05025
                ],
                [
                    0.0,
                    0.00425,
                    -1.04212
                ]
            ],
            [
                [
                    -1.43234,
                    0.46861,
                    0.04348
                ],
                [
                    0.46837,
                    -1.97279,
                    0.02494
                ],
                [
                    -0.00369,
                    -0.00213,
                    -1.04212
                ]
            ],
            [
                [
                    -1.43235,
                    -0.46893,
                    -0.04354
                ],
                [
                    -0.46837,
                    -1.97279,
                    0.02494
                ],
                [
                    0.00369,
                    -0.00213,
                    -1.04212
                ]
            ],
            [
                [
                    -2.24471,
                    0.0,
                    0.0
                ],
                [
                    0.00173,
                    -1.16168,
                    -0.05025
                ],
                [
                    -0.0,
                    0.00425,
                    -1.04212
                ]
            ],
            [
                [
                    -1.43235,
                    0.46893,
                    0.04354
                ],
                [
                    0.46915,
                    -1.97444,
                    0.02531
                ],
                [
                    -0.00369,
                    -0.00213,
                    -1.04212
                ]
            ]
        ]
    },
    "band_gap": 4.1865000000000006,
    "is_direct": false,
    "formula": "NaBO2"
}