{
    "mp_id": "mp-3281",
    "nelements": 3,
    "nsites": 30,
    "elements": [
        "Al",
        "B",
        "O"
    ],
    "structure": {
        "@module": "pymatgen.core.structure",
        "@class": "Structure",
        "charge": null,
        "lattice": {
            "matrix": [
                [
                    2.85466236,
                    -7.50833377,
                    0.0
                ],
                [
                    2.85466236,
                    7.50833377,
                    0.0
                ],
                [
                    0.0,
                    0.0,
                    7.71195761
                ]
            ],
            "a": 8.03269401828074,
            "b": 8.03269401828074,
            "c": 7.71195761,
            "alpha": 90.0,
            "beta": 90.0,
            "gamma": 138.36647468221784,
            "volume": 330.5924631460554
        },
        "sites": [
            {
                "species": [
                    {
                        "element": "Al",
                        "occu": 1
                    }
                ],
                "abc": [
                    0.36751979,
                    0.13616609,
                    0.49971602
                ],
                "xyz": [
                    1.4378531228994766,
                    -1.7370807985244492,
                    3.8537887632779118
                ],
                "label": "Al",
                "properties": {}
            },
            {
                "species": [
                    {
                        "element": "Al",
                        "occu": 1
                    }
                ],
                "abc": [
                    0.29738651,
                    0.70261349,
                    0.33230069
                ],
                "xyz": [
                    2.85466236,
                    3.042579418449114,
                    2.562688835053751
                ],
                "label": "Al",
                "properties": {}
            },
            {
                "species": [
                    {
                        "element": "Al",
                        "occu": 1
                    }
                ],
                "abc": [
                    0.70261349,
                    0.29738651,
                    0.83230069
                ],
                "xyz": [
                    2.85466236,
                    -3.042579418449114,
                    6.418667640053751
                ],
                "label": "Al",
                "properties": {}
            },
            {
                "species": [
                    {
                        "element": "Al",
                        "occu": 1
                    }
                ],
                "abc": [
                    0.55668308,
                    0.44331692,
                    0.18645013
                ],
                "xyz": [
                    2.85466236,
                    -0.8511909675032232,
                    1.4378954989389892
                ],
                "label": "Al",
                "properties": {}
            },
            {
                "species": [
                    {
                        "element": "Al",
                        "occu": 1
                    }
                ],
                "abc": [
                    0.44331692,
                    0.55668308,
                    0.68645013
                ],
                "xyz": [
                    2.85466236,
                    0.8511909675032232,
                    5.293874303938989
                ],
                "label": "Al",
                "properties": {}
            },
            {
                "species": [
                    {
                        "element": "Al",
                        "occu": 1
                    }
                ],
                "abc": [
                    0.74440562,
                    0.25559438,
                    0.18181137
                ],
                "xyz": [
                    2.85466236,
                    -3.670157940447575,
                    1.4021215784560257
                ],
                "label": "Al",
                "properties": {}
            },
            {
                "species": [
                    {
                        "element": "Al",
                        "occu": 1
                    }
                ],
                "abc": [
                    0.25559438,
                    0.74440562,
                    0.68181137
                ],
                "xyz": [
                    2.85466236,
                    3.670157940447575,
                    5.258100383456026
                ],
                "label": "Al",
                "properties": {}
            },
            {
                "species": [
                    {
                        "element": "Al",
                        "occu": 1
                    }
                ],
                "abc": [
                    0.13616609,
                    0.36751979,
                    0.99971602
                ],
                "xyz": [
                    1.4378531228994766,
                    1.7370807985244492,
                    7.709767568277912
                ],
                "label": "Al",
                "properties": {}
            },
            {
                "species": [
                    {
                        "element": "Al",
                        "occu": 1
                    }
                ],
                "abc": [
                    0.86383391,
                    0.63248021,
                    0.49971602
                ],
                "xyz": [
                    4.271471597100523,
                    -1.737080798524449,
                    3.8537887632779118
                ],
                "label": "Al",
                "properties": {}
            },
            {
                "species": [
                    {
                        "element": "Al",
                        "occu": 1
                    }
                ],
                "abc": [
                    0.63248021,
                    0.86383391,
                    0.99971602
                ],
                "xyz": [
                    4.271471597100523,
                    1.737080798524449,
                    7.709767568277912
                ],
                "label": "Al",
                "properties": {}
            },
            {
                "species": [
                    {
                        "element": "B",
                        "occu": 1
                    }
                ],
                "abc": [
                    0.98497714,
                    0.01502286,
                    0.72271608
                ],
                "xyz": [
                    2.85466236,
                    -7.282740475880036,
                    5.573555773025369
                ],
                "label": "B",
                "properties": {}
            },
            {
                "species": [
                    {
                        "element": "B",
                        "occu": 1
                    }
                ],
                "abc": [
                    0.01502286,
                    0.98497714,
                    0.22271608
                ],
                "xyz": [
                    2.85466236,
                    7.282740475880036,
                    1.7175769680253687
                ],
                "label": "B",
                "properties": {}
            },
            {
                "species": [
                    {
                        "element": "O",
                        "occu": 1
                    }
                ],
                "abc": [
                    0.19146186,
                    0.80853814,
                    0.4355764
                ],
                "xyz": [
                    2.85466236,
                    4.633214671789975,
                    3.3591467327164035
                ],
                "label": "O",
                "properties": {}
            },
            {
                "species": [
                    {
                        "element": "O",
                        "occu": 1
                    }
                ],
                "abc": [
                    0.95325907,
                    0.04674093,
                    0.09338469
                ],
                "xyz": [
                    2.85466236,
                    -6.806440763679587,
                    0.720178770702991
                ],
                "label": "O",
                "properties": {}
            },
            {
                "species": [
                    {
                        "element": "O",
                        "occu": 1
                    }
                ],
                "abc": [
                    0.04674093,
                    0.95325907,
                    0.59338469
                ],
                "xyz": [
                    2.85466236,
                    6.806440763679587,
                    4.576157575702991
                ],
                "label": "O",
                "properties": {}
            },
            {
                "species": [
                    {
                        "element": "O",
                        "occu": 1
                    }
                ],
                "abc": [
                    0.45440229,
                    0.54559771,
                    0.07367251
                ],
                "xyz": [
                    2.85466236,
                    0.684725651655334,
                    0.568159274142301
                ],
                "label": "O",
                "properties": {}
            },
            {
                "species": [
                    {
                        "element": "O",
                        "occu": 1
                    }
                ],
                "abc": [
                    0.54559771,
                    0.45440229,
                    0.57367251
                ],
                "xyz": [
                    2.85466236,
                    -0.684725651655334,
                    4.424138079142301
                ],
                "label": "O",
                "properties": {}
            },
            {
                "species": [
                    {
                        "element": "O",
                        "occu": 1
                    }
                ],
                "abc": [
                    0.66821905,
                    0.33178095,
                    0.36559969
                ],
                "xyz": [
                    2.85466236,
                    -2.5260895477446375,
                    2.8194893115091406
                ],
                "label": "O",
                "properties": {}
            },
            {
                "species": [
                    {
                        "element": "O",
                        "occu": 1
                    }
                ],
                "abc": [
                    0.33178095,
                    0.66821905,
                    0.86559969
                ],
                "xyz": [
                    2.85466236,
                    2.5260895477446375,
                    6.675468116509141
                ],
                "label": "O",
                "properties": {}
            },
            {
                "species": [
                    {
                        "element": "O",
                        "occu": 1
                    }
                ],
                "abc": [
                    0.83761682,
                    0.74273695,
                    0.287279
                ],
                "xyz": [
                    4.511376422703097,
                    -0.7123897320142101,
                    2.21548347024319
                ],
                "label": "O",
                "properties": {}
            },
            {
                "species": [
                    {
                        "element": "O",
                        "occu": 1
                    }
                ],
                "abc": [
                    0.80853814,
                    0.19146186,
                    0.9355764
                ],
                "xyz": [
                    2.85466236,
                    -4.633214671789975,
                    7.215125537716403
                ],
                "label": "O",
                "properties": {}
            },
            {
                "species": [
                    {
                        "element": "O",
                        "occu": 1
                    }
                ],
                "abc": [
                    0.64716638,
                    0.35283362,
                    0.03582125
                ],
                "xyz": [
                    2.85466236,
                    -2.209948601525306,
                    0.2762519615372125
                ],
                "label": "O",
                "properties": {}
            },
            {
                "species": [
                    {
                        "element": "O",
                        "occu": 1
                    }
                ],
                "abc": [
                    0.74273695,
                    0.83761682,
                    0.787279
                ],
                "xyz": [
                    4.511376422703097,
                    0.7123897320142101,
                    6.0714622752431895
                ],
                "label": "O",
                "properties": {}
            },
            {
                "species": [
                    {
                        "element": "O",
                        "occu": 1
                    }
                ],
                "abc": [
                    0.25726305,
                    0.16238318,
                    0.287279
                ],
                "xyz": [
                    1.1979482972969027,
                    -0.7123897320142099,
                    2.21548347024319
                ],
                "label": "O",
                "properties": {}
            },
            {
                "species": [
                    {
                        "element": "O",
                        "occu": 1
                    }
                ],
                "abc": [
                    0.16238318,
                    0.25726305,
                    0.787279
                ],
                "xyz": [
                    1.1979482972969027,
                    0.7123897320142099,
                    6.0714622752431895
                ],
                "label": "O",
                "properties": {}
            },
            {
                "species": [
                    {
                        "element": "O",
                        "occu": 1
                    }
                ],
                "abc": [
                    0.44772934,
                    0.06687984,
                    0.69873657
                ],
                "xyz": [
                    1.4690354562564645,
                    -2.8595451621376147,
                    5.388626808396798
                ],
                "label": "O",
                "properties": {}
            },
            {
                "species": [
                    {
                        "element": "O",
                        "occu": 1
                    }
                ],
                "abc": [
                    0.06687984,
                    0.44772934,
                    0.19873657
                ],
                "xyz": [
                    1.4690354562564645,
                    2.8595451621376147,
                    1.5326480033967977
                ],
                "label": "O",
                "properties": {}
            },
            {
                "species": [
                    {
                        "element": "O",
                        "occu": 1
                    }
                ],
                "abc": [
                    0.55227066,
                    0.93312016,
                    0.19873657
                ],
                "xyz": [
                    4.240289263743535,
                    2.859545162137615,
                    1.5326480033967977
                ],
                "label": "O",
                "properties": {}
            },
            {
                "species": [
                    {
                        "element": "O",
                        "occu": 1
                    }
                ],
                "abc": [
                    0.93312016,
                    0.55227066,
                    0.69873657
                ],
                "xyz": [
                    4.240289263743535,
                    -2.859545162137615,
                    5.388626808396798
                ],
                "label": "O",
                "properties": {}
            },
            {
                "species": [
                    {
                        "element": "O",
                        "occu": 1
                    }
                ],
                "abc": [
                    0.35283362,
                    0.64716638,
                    0.53582125
                ],
                "xyz": [
                    2.85466236,
                    2.209948601525306,
                    4.132230766537212
                ],
                "label": "O",
                "properties": {}
            }
        ]
    },
    "spacegroup": {
        "source": "spglib",
        "symbol": "Cmc2_1",
        "number": 36,
        "point_group": "mm2",
        "crystal_system": "orthorhombic",
        "hall": "C 2c -2"
    },
    "dielectric": {
        "epsilon_ionic": [
            [
                2.95217468,
                -0.0,
                -4.7e-07
            ],
            [
                -0.0,
                4.14332852,
                4.2e-07
            ],
            [
                -4.7e-07,
                4.2e-07,
                4.16864459
            ]
        ],
        "epsilon_ionic_avg": 3.7547159299999997,
        "epsilon_ionic_eig": [
            2.952174679999819,
            4.16864459000715,
            4.143328519993031
        ],
        "epsilon_electronic": [
            [
                2.76154589,
                0.0,
                0.0
            ],
            [
                0.0,
                2.66894527,
                0.0
            ],
            [
                0.0,
                0.0,
                2.71760342
            ]
        ],
        "epsilon_electronic_avg": 2.716031526666667,
        "epsilon_electronic_eig": [
            2.76154589,
            2.66894527,
            2.71760342
        ]
    },
    "phonon": {
        "lowest_freq": -0.0679406577872332,
        "frequency": [
            -0.0679406577872332,
            -0.046935412437907144,
            -0.04473800670128863,
            3.7602330068527734,
            4.450530626589785,
            5.194903678023751,
            5.433641117889341,
            5.641303768096116,
            5.973250517393128,
            6.053373873279986,
            6.062775315790787,
            6.528203397398923,
            7.07853064987898,
            7.11487571266524,
            7.2104006934515015,
            7.32454506070358,
            7.528512056480485,
            7.762778878757224,
            7.96920254635041,
            8.040801204380317,
            8.276342412774136,
            8.92057534363033,
            8.932561057236155,
            9.168561813981668,
            9.419493589094463,
            9.61276953188044,
            9.86583907729073,
            10.313184135248877,
            10.359031983231082,
            10.386715741640293,
            10.514665128444213,
            10.6727592127121,
            11.03469164901941,
            11.105892965423784,
            11.276171263494769,
            12.426173340171422,
            12.556778934240223,
            12.597732942277542,
            12.903305891298869,
            13.214946713193847,
            13.234707078209329,
            13.641387197534733,
            13.753195328494458,
            13.934340297607323,
            14.834303490192722,
            14.839141499154925,
            14.915361567104979,
            15.101038048229265,
            15.315321725647745,
            15.404825612743792,
            16.023055358261296,
            16.0724713477043,
            16.793030316807982,
            17.154947494529704,
            17.158954816247217,
            17.327618294325198,
            17.406999008804352,
            17.511033659894213,
            17.67217452196043,
            18.288178329140464,
            18.548352308279902,
            19.086412415882087,
            19.3590288131686,
            19.668035562963823,
            19.741130670937434,
            19.97149747581553,
            20.109956651737473,
            20.237623129129222,
            20.861969785790386,
            21.034678890780956,
            21.183141516231306,
            21.58087763421487,
            22.369057378853412,
            22.476491190602207,
            23.096689579332875,
            23.296397768201157,
            24.9494179912788,
            25.927443854278877,
            25.989070011318802,
            26.00745713220236,
            26.12789352856055,
            26.41148101958363,
            26.579595468973928,
            27.64185775838167,
            29.942826909181186,
            29.954000911882975,
            37.943368896564685,
            38.00233052486016,
            39.63104228951818,
            41.61258406836479
        ]
    },
    "born_effective_charge": {
        "avg_abs_trace": 2.130165666666666,
        "tensors": [
            [
                [
                    3.0726,
                    0.02534,
                    -0.01083
                ],
                [
                    0.05225,
                    2.73987,
                    -0.13119
                ],
                [
                    -0.23928,
                    -0.04274,
                    2.88792
                ]
            ],
            [
                [
                    2.44879,
                    0.0,
                    0.0
                ],
                [
                    0.0,
                    2.39819,
                    0.24897
                ],
                [
                    0.0,
                    0.29899,
                    2.93482
                ]
            ],
            [
                [
                    2.44879,
                    -0.0,
                    0.0
                ],
                [
                    0.0,
                    2.39819,
                    -0.24897
                ],
                [
                    0.0,
                    -0.29899,
                    2.93482
                ]
            ],
            [
                [
                    2.84565,
                    -0.0,
                    0.0
                ],
                [
                    0.0,
                    3.00122,
                    -0.18716
                ],
                [
                    0.0,
                    -0.27393,
                    2.6494
                ]
            ],
            [
                [
                    2.84565,
                    0.0,
                    0.0
                ],
                [
                    0.0,
                    3.00122,
                    0.18716
                ],
                [
                    0.0,
                    0.27393,
                    2.6494
                ]
            ],
            [
                [
                    2.44837,
                    -0.0,
                    0.0
                ],
                [
                    0.0,
                    2.7375,
                    0.44894
                ],
                [
                    0.0,
                    0.32118,
                    2.6208
                ]
            ],
            [
                [
                    2.44837,
                    0.0,
                    0.0
                ],
                [
                    0.0,
                    2.7375,
                    -0.44894
                ],
                [
                    0.0,
                    -0.32118,
                    2.6208
                ]
            ],
            [
                [
                    3.0726,
                    -0.02534,
                    -0.01083
                ],
                [
                    -0.05225,
                    2.73987,
                    0.13119
                ],
                [
                    -0.23928,
                    0.04274,
                    2.88792
                ]
            ],
            [
                [
                    3.0726,
                    -0.02534,
                    0.01083
                ],
                [
                    -0.05225,
                    2.73987,
                    -0.13119
                ],
                [
                    0.23928,
                    -0.04274,
                    2.88792
                ]
            ],
            [
                [
                    3.0726,
                    0.02534,
                    0.01083
                ],
                [
                    0.05225,
                    2.73987,
                    0.13119
                ],
                [
                    0.23928,
                    0.04274,
                    2.88792
                ]
            ],
            [
                [
                    2.89339,
                    0.0,
                    -0.0
                ],
                [
                    0.0,
                    1.75709,
                    1.24778
                ],
                [
                    0.0,
                    1.15754,
                    1.79274
                ]
            ],
            [
                [
                    2.89339,
                    -0.0,
                    -0.0
                ],
                [
                    0.0,
                    1.75709,
                    -1.24778
                ],
                [
                    0.0,
                    -1.15754,
                    1.79274
                ]
            ],
            [
                [
                    -1.75258,
                    -0.0,
                    0.0
                ],
                [
                    0.0,
                    -2.01298,
                    -0.15544
                ],
                [
                    0.0,
                    -0.13262,
                    -1.72206
                ]
            ],
            [
                [
                    -1.62122,
                    -0.0,
                    0.0
                ],
                [
                    0.0,
                    -1.83129,
                    0.89166
                ],
                [
                    0.0,
                    0.84614,
                    -1.73488
                ]
            ],
            [
                [
                    -1.62122,
                    0.0,
                    0.0
                ],
                [
                    0.0,
                    -1.83129,
                    -0.89166
                ],
                [
                    0.0,
                    -0.84614,
                    -1.73488
                ]
            ],
            [
                [
                    -1.89168,
                    0.0,
                    -0.0
                ],
                [
                    0.0,
                    -1.98398,
                    0.33168
                ],
                [
                    0.0,
                    0.41567,
                    -1.6167
                ]
            ],
            [
                [
                    -1.89168,
                    -0.0,
                    -0.0
                ],
                [
                    0.0,
                    -1.98397,
                    -0.33168
                ],
                [
                    0.0,
                    -0.41567,
                    -1.6167
                ]
            ],
            [
                [
                    -1.79727,
                    0.0,
                    0.0
                ],
                [
                    0.0,
                    -1.74362,
                    -0.31043
                ],
                [
                    0.0,
                    -0.31043,
                    -2.0015
                ]
            ],
            [
                [
                    -1.79727,
                    -0.0,
                    0.0
                ],
                [
                    0.0,
                    -1.74362,
                    0.31043
                ],
                [
                    0.0,
                    0.31043,
                    -2.0015
                ]
            ],
            [
                [
                    -2.38127,
                    -0.44203,
                    0.17524
                ],
                [
                    -0.49023,
                    -1.31844,
                    0.47321
                ],
                [
                    0.18455,
                    0.51438,
                    -1.51961
                ]
            ],
            [
                [
                    -1.75258,
                    0.0,
                    0.0
                ],
                [
                    0.0,
                    -2.01298,
                    0.15544
                ],
                [
                    0.0,
                    0.13262,
                    -1.72206
                ]
            ],
            [
                [
                    -1.06001,
                    0.0,
                    -0.0
                ],
                [
                    0.0,
                    -2.04973,
                    -0.32418
                ],
                [
                    0.0,
                    -0.28617,
                    -2.15528
                ]
            ],
            [
                [
                    -2.38127,
                    0.44203,
                    0.17524
                ],
                [
                    0.49023,
                    -1.31844,
                    -0.47321
                ],
                [
                    0.18455,
                    -0.51438,
                    -1.51961
                ]
            ],
            [
                [
                    -2.38127,
                    0.44203,
                    -0.17525
                ],
                [
                    0.49023,
                    -1.31844,
                    0.47321
                ],
                [
                    -0.18455,
                    0.51438,
                    -1.51961
                ]
            ],
            [
                [
                    -2.38127,
                    -0.44203,
                    -0.17525
                ],
                [
                    -0.49023,
                    -1.31844,
                    -0.47321
                ],
                [
                    -0.18455,
                    -0.51438,
                    -1.51961
                ]
            ],
            [
                [
                    -1.94804,
                    -0.25096,
                    -0.34381
                ],
                [
                    -0.23757,
                    -1.55763,
                    0.42339
                ],
                [
                    -0.30974,
                    0.3192,
                    -1.75198
                ]
            ],
            [
                [
                    -1.94804,
                    0.25096,
                    -0.34381
                ],
                [
                    0.23757,
                    -1.55763,
                    -0.42339
                ],
                [
                    -0.30974,
                    -0.3192,
                    -1.75198
                ]
            ],
            [
                [
                    -1.94804,
                    -0.25095,
                    0.34381
                ],
                [
                    -0.23757,
                    -1.55763,
                    -0.42339
                ],
                [
                    0.30974,
                    -0.3192,
                    -1.75198
                ]
            ],
            [
                [
                    -1.94804,
                    0.25095,
                    0.34381
                ],
                [
                    0.23757,
                    -1.55763,
                    0.42339
                ],
                [
                    0.30974,
                    0.3192,
                    -1.75198
                ]
            ],
            [
                [
                    -1.06001,
                    -0.0,
                    -0.0
                ],
                [
                    0.0,
                    -2.04973,
                    0.32417
                ],
                [
                    0.0,
                    0.28617,
                    -2.15528
                ]
            ]
        ]
    },
    "band_gap": 4.9588,
    "is_direct": false,
    "formula": "Al5BO9"
}