{
    "mp_id": "mp-3370",
    "nelements": 3,
    "nsites": 22,
    "elements": [
        "O",
        "Sn",
        "Y"
    ],
    "structure": {
        "@module": "pymatgen.core.structure",
        "@class": "Structure",
        "charge": null,
        "lattice": {
            "matrix": [
                [
                    0.0,
                    5.193604,
                    5.193604
                ],
                [
                    5.193604,
                    0.0,
                    5.193604
                ],
                [
                    5.193604,
                    5.193604,
                    0.0
                ]
            ],
            "a": 7.344865214395155,
            "b": 7.344865214395155,
            "c": 7.344865214395155,
            "alpha": 60.00000000000001,
            "beta": 60.00000000000001,
            "gamma": 60.00000000000001,
            "volume": 280.1795887917536
        },
        "sites": [
            {
                "species": [
                    {
                        "element": "Y",
                        "occu": 1
                    }
                ],
                "abc": [
                    0.625,
                    0.625,
                    0.625
                ],
                "xyz": [
                    6.492005,
                    6.492005,
                    6.492005
                ],
                "label": "Y",
                "properties": {}
            },
            {
                "species": [
                    {
                        "element": "Y",
                        "occu": 1
                    }
                ],
                "abc": [
                    0.125,
                    0.625,
                    0.625
                ],
                "xyz": [
                    6.492005,
                    3.895203,
                    3.895203
                ],
                "label": "Y",
                "properties": {}
            },
            {
                "species": [
                    {
                        "element": "Y",
                        "occu": 1
                    }
                ],
                "abc": [
                    0.625,
                    0.125,
                    0.625
                ],
                "xyz": [
                    3.895203,
                    6.492005,
                    3.895203
                ],
                "label": "Y",
                "properties": {}
            },
            {
                "species": [
                    {
                        "element": "Y",
                        "occu": 1
                    }
                ],
                "abc": [
                    0.625,
                    0.625,
                    0.125
                ],
                "xyz": [
                    3.895203,
                    3.895203,
                    6.492005
                ],
                "label": "Y",
                "properties": {}
            },
            {
                "species": [
                    {
                        "element": "Sn",
                        "occu": 1
                    }
                ],
                "abc": [
                    0.125,
                    0.125,
                    0.125
                ],
                "xyz": [
                    1.298401,
                    1.298401,
                    1.298401
                ],
                "label": "Sn",
                "properties": {}
            },
            {
                "species": [
                    {
                        "element": "Sn",
                        "occu": 1
                    }
                ],
                "abc": [
                    0.625,
                    0.125,
                    0.125
                ],
                "xyz": [
                    1.298401,
                    3.895203,
                    3.895203
                ],
                "label": "Sn",
                "properties": {}
            },
            {
                "species": [
                    {
                        "element": "Sn",
                        "occu": 1
                    }
                ],
                "abc": [
                    0.125,
                    0.625,
                    0.125
                ],
                "xyz": [
                    3.895203,
                    1.298401,
                    3.895203
                ],
                "label": "Sn",
                "properties": {}
            },
            {
                "species": [
                    {
                        "element": "Sn",
                        "occu": 1
                    }
                ],
                "abc": [
                    0.125,
                    0.125,
                    0.625
                ],
                "xyz": [
                    3.895203,
                    3.895203,
                    1.298401
                ],
                "label": "Sn",
                "properties": {}
            },
            {
                "species": [
                    {
                        "element": "O",
                        "occu": 1
                    }
                ],
                "abc": [
                    0.75,
                    0.75,
                    0.75
                ],
                "xyz": [
                    7.790405999999999,
                    7.790405999999999,
                    7.790405999999999
                ],
                "label": "O",
                "properties": {}
            },
            {
                "species": [
                    {
                        "element": "O",
                        "occu": 1
                    }
                ],
                "abc": [
                    0.5,
                    0.5,
                    0.5
                ],
                "xyz": [
                    5.193604,
                    5.193604,
                    5.193604
                ],
                "label": "O",
                "properties": {}
            },
            {
                "species": [
                    {
                        "element": "O",
                        "occu": 1
                    }
                ],
                "abc": [
                    0.785131,
                    0.214869,
                    0.785131
                ],
                "xyz": [
                    5.193604,
                    8.155319004248,
                    5.193604
                ],
                "label": "O",
                "properties": {}
            },
            {
                "species": [
                    {
                        "element": "O",
                        "occu": 1
                    }
                ],
                "abc": [
                    0.035131,
                    0.464869,
                    0.035131
                ],
                "xyz": [
                    2.5968019999999994,
                    0.364913004248,
                    2.5968019999999994
                ],
                "label": "O",
                "properties": {}
            },
            {
                "species": [
                    {
                        "element": "O",
                        "occu": 1
                    }
                ],
                "abc": [
                    0.785131,
                    0.785131,
                    0.214869
                ],
                "xyz": [
                    5.193604,
                    5.193604,
                    8.155319004248
                ],
                "label": "O",
                "properties": {}
            },
            {
                "species": [
                    {
                        "element": "O",
                        "occu": 1
                    }
                ],
                "abc": [
                    0.214869,
                    0.785131,
                    0.785131
                ],
                "xyz": [
                    8.155319004248,
                    5.193604,
                    5.193604
                ],
                "label": "O",
                "properties": {}
            },
            {
                "species": [
                    {
                        "element": "O",
                        "occu": 1
                    }
                ],
                "abc": [
                    0.785131,
                    0.214869,
                    0.214869
                ],
                "xyz": [
                    2.231888995752,
                    5.193604,
                    5.193604
                ],
                "label": "O",
                "properties": {}
            },
            {
                "species": [
                    {
                        "element": "O",
                        "occu": 1
                    }
                ],
                "abc": [
                    0.214869,
                    0.214869,
                    0.785131
                ],
                "xyz": [
                    5.193604,
                    5.193604,
                    2.231888995752
                ],
                "label": "O",
                "properties": {}
            },
            {
                "species": [
                    {
                        "element": "O",
                        "occu": 1
                    }
                ],
                "abc": [
                    0.214869,
                    0.785131,
                    0.214869
                ],
                "xyz": [
                    5.193604,
                    2.231888995752,
                    5.193604
                ],
                "label": "O",
                "properties": {}
            },
            {
                "species": [
                    {
                        "element": "O",
                        "occu": 1
                    }
                ],
                "abc": [
                    0.464869,
                    0.035131,
                    0.035131
                ],
                "xyz": [
                    0.364913004248,
                    2.5968019999999994,
                    2.5968019999999994
                ],
                "label": "O",
                "properties": {}
            },
            {
                "species": [
                    {
                        "element": "O",
                        "occu": 1
                    }
                ],
                "abc": [
                    0.035131,
                    0.464869,
                    0.464869
                ],
                "xyz": [
                    4.828690995751999,
                    2.5968019999999994,
                    2.5968019999999994
                ],
                "label": "O",
                "properties": {}
            },
            {
                "species": [
                    {
                        "element": "O",
                        "occu": 1
                    }
                ],
                "abc": [
                    0.464869,
                    0.035131,
                    0.464869
                ],
                "xyz": [
                    2.5968019999999994,
                    4.828690995751999,
                    2.5968019999999994
                ],
                "label": "O",
                "properties": {}
            },
            {
                "species": [
                    {
                        "element": "O",
                        "occu": 1
                    }
                ],
                "abc": [
                    0.035131,
                    0.035131,
                    0.464869
                ],
                "xyz": [
                    2.5968019999999994,
                    2.5968019999999994,
                    0.364913004248
                ],
                "label": "O",
                "properties": {}
            },
            {
                "species": [
                    {
                        "element": "O",
                        "occu": 1
                    }
                ],
                "abc": [
                    0.464869,
                    0.464869,
                    0.035131
                ],
                "xyz": [
                    2.5968019999999994,
                    2.5968019999999994,
                    4.828690995751999
                ],
                "label": "O",
                "properties": {}
            }
        ]
    },
    "spacegroup": {
        "source": "spglib",
        "symbol": "Fd-3m",
        "number": 227,
        "point_group": "m-3m",
        "crystal_system": "cubic",
        "hall": "F 4d 2 3 -1d"
    },
    "dielectric": {
        "epsilon_ionic": [
            [
                13.95596243,
                -0.0,
                0.0
            ],
            [
                -0.0,
                13.95593502,
                -0.0
            ],
            [
                0.0,
                -0.0,
                13.95378713
            ]
        ],
        "epsilon_ionic_avg": 13.955228193333333,
        "epsilon_ionic_eig": [
            13.95596243,
            13.95593502,
            13.95378713
        ],
        "epsilon_electronic": [
            [
                4.31690332,
                0.0,
                -0.0
            ],
            [
                -0.0,
                4.31690332,
                -0.0
            ],
            [
                -0.0,
                0.0,
                4.31690332
            ]
        ],
        "epsilon_electronic_avg": 4.31690332,
        "epsilon_electronic_eig": [
            4.31690332,
            4.31690332,
            4.31690332
        ]
    },
    "phonon": {
        "lowest_freq": -0.04357715362461346,
        "frequency": [
            -0.04357715362461346,
            -0.04357715362461346,
            -0.04357715362461346,
            2.683360933937443,
            2.683360933937443,
            2.683360933937443,
            3.4411389528859724,
            3.4411389528859724,
            3.4411389528859724,
            3.542634191466622,
            3.542634191466622,
            4.795736176096328,
            4.795736176096328,
            4.795736176096328,
            4.993671195647116,
            4.993671195647116,
            4.993671195647116,
            5.6193196741256815,
            5.6193196741256815,
            6.192349738157827,
            6.192349738157827,
            6.192349738157827,
            6.956984802421059,
            6.956984802421059,
            6.956984802421059,
            7.837896628091468,
            8.884438055802486,
            8.884438055802486,
            8.884438055802486,
            8.896347966939404,
            8.896347966939404,
            8.896347966939404,
            9.136914536192254,
            9.136914536192254,
            9.136914536192254,
            9.389929986063233,
            10.223485344312598,
            10.223485344312598,
            10.223485344312598,
            10.52518604772161,
            10.52518604772161,
            11.740673636074913,
            11.740673636074913,
            11.740673636074913,
            12.370160167787295,
            12.370160167787295,
            12.700755145268102,
            12.700755145268102,
            12.700755145268102,
            13.579072762473098,
            14.402687873871097,
            15.397814048549533,
            15.397814048549533,
            15.397814048549533,
            16.73925166151456,
            16.73925166151456,
            16.73925166151456,
            18.360015569115077,
            18.360015569115077,
            18.360015569115077,
            20.892817798943863,
            20.892817798943863,
            20.892817798943863,
            21.98639903575434,
            21.98639903575434,
            21.98639903575434
        ]
    },
    "born_effective_charge": {
        "avg_abs_trace": 2.8992830303030304,
        "tensors": [
            [
                [
                    3.8847,
                    0.06384,
                    0.06384
                ],
                [
                    0.06381,
                    3.88469,
                    0.06381
                ],
                [
                    0.06406,
                    0.06406,
                    3.88427
                ]
            ],
            [
                [
                    3.8847,
                    -0.06384,
                    -0.06384
                ],
                [
                    -0.06381,
                    3.88469,
                    0.06381
                ],
                [
                    -0.06406,
                    0.06406,
                    3.88427
                ]
            ],
            [
                [
                    3.8847,
                    -0.06384,
                    0.06384
                ],
                [
                    -0.06381,
                    3.88469,
                    -0.06381
                ],
                [
                    0.06406,
                    -0.06406,
                    3.88427
                ]
            ],
            [
                [
                    3.8847,
                    0.06384,
                    -0.06384
                ],
                [
                    0.06381,
                    3.88469,
                    -0.06381
                ],
                [
                    -0.06406,
                    -0.06406,
                    3.88427
                ]
            ],
            [
                [
                    4.08846,
                    -0.23656,
                    -0.23656
                ],
                [
                    -0.23655,
                    4.08845,
                    -0.23655
                ],
                [
                    -0.23686,
                    -0.23686,
                    4.08851
                ]
            ],
            [
                [
                    4.08846,
                    0.23656,
                    0.23656
                ],
                [
                    0.23655,
                    4.08845,
                    -0.23655
                ],
                [
                    0.23686,
                    -0.23686,
                    4.08851
                ]
            ],
            [
                [
                    4.08846,
                    0.23656,
                    -0.23656
                ],
                [
                    0.23655,
                    4.08845,
                    0.23655
                ],
                [
                    -0.23686,
                    0.23686,
                    4.08851
                ]
            ],
            [
                [
                    4.08846,
                    -0.23656,
                    0.23656
                ],
                [
                    -0.23655,
                    4.08845,
                    0.23655
                ],
                [
                    0.23686,
                    0.23686,
                    4.08851
                ]
            ],
            [
                [
                    -2.62035,
                    -0.0,
                    -0.0
                ],
                [
                    -0.0,
                    -2.62036,
                    0.0
                ],
                [
                    -0.0,
                    -0.0,
                    -2.61961
                ]
            ],
            [
                [
                    -2.62035,
                    0.0,
                    -0.0
                ],
                [
                    -0.0,
                    -2.62036,
                    0.0
                ],
                [
                    -0.0,
                    -0.0,
                    -2.61961
                ]
            ],
            [
                [
                    -2.25304,
                    6e-05,
                    0.24506
                ],
                [
                    -0.0,
                    -2.1569,
                    -0.0
                ],
                [
                    0.2451,
                    1e-05,
                    -2.25295
                ]
            ],
            [
                [
                    -2.25304,
                    6e-05,
                    -0.24506
                ],
                [
                    0.0,
                    -2.1569,
                    0.0
                ],
                [
                    -0.2451,
                    1e-05,
                    -2.25295
                ]
            ],
            [
                [
                    -2.25304,
                    0.24506,
                    6e-05
                ],
                [
                    0.24506,
                    -2.25304,
                    -0.0
                ],
                [
                    -0.0,
                    -0.0,
                    -2.15699
                ]
            ],
            [
                [
                    -2.15682,
                    -0.0,
                    -0.0
                ],
                [
                    -0.0,
                    -2.25304,
                    0.24506
                ],
                [
                    1e-05,
                    0.2451,
                    -2.25295
                ]
            ],
            [
                [
                    -2.157,
                    -0.0,
                    -0.0
                ],
                [
                    0.0,
                    -2.25304,
                    -0.24506
                ],
                [
                    -1e-05,
                    -0.2451,
                    -2.25295
                ]
            ],
            [
                [
                    -2.25304,
                    -0.24506,
                    -6e-05
                ],
                [
                    -0.24506,
                    -2.25304,
                    0.0
                ],
                [
                    0.0,
                    0.0,
                    -2.15715
                ]
            ],
            [
                [
                    -2.25304,
                    -6e-05,
                    -0.24506
                ],
                [
                    0.0,
                    -2.15688,
                    0.0
                ],
                [
                    -0.2451,
                    -1e-05,
                    -2.25295
                ]
            ],
            [
                [
                    -2.15682,
                    0.0,
                    0.0
                ],
                [
                    -0.0,
                    -2.25304,
                    -0.24506
                ],
                [
                    1e-05,
                    -0.2451,
                    -2.25295
                ]
            ],
            [
                [
                    -2.157,
                    0.0,
                    0.0
                ],
                [
                    0.0,
                    -2.25304,
                    0.24506
                ],
                [
                    -1e-05,
                    0.2451,
                    -2.25295
                ]
            ],
            [
                [
                    -2.25304,
                    -6e-05,
                    0.24506
                ],
                [
                    -0.0,
                    -2.15688,
                    -0.0
                ],
                [
                    0.2451,
                    -1e-05,
                    -2.25295
                ]
            ],
            [
                [
                    -2.25304,
                    -0.24506,
                    6e-05
                ],
                [
                    -0.24506,
                    -2.25304,
                    -0.0
                ],
                [
                    -0.0,
                    -0.0,
                    -2.15699
                ]
            ],
            [
                [
                    -2.25304,
                    0.24506,
                    -6e-05
                ],
                [
                    0.24506,
                    -2.25304,
                    0.0
                ],
                [
                    -0.0,
                    -0.0,
                    -2.15715
                ]
            ]
        ]
    },
    "band_gap": 2.9029,
    "is_direct": true,
    "formula": "Y2Sn2O7"
}