{
    "mp_id": "mp-352",
    "nelements": 2,
    "nsites": 12,
    "elements": [
        "Hf",
        "O"
    ],
    "structure": {
        "@module": "pymatgen.core.structure",
        "@class": "Structure",
        "charge": null,
        "lattice": {
            "matrix": [
                [
                    5.18347558,
                    0.0,
                    -0.00020636
                ],
                [
                    0.0,
                    5.21010936,
                    0.0
                ],
                [
                    -0.87805106,
                    0.0,
                    5.25436324
                ]
            ],
            "a": 5.183475584107711,
            "b": 5.21010936,
            "c": 5.327223171768799,
            "alpha": 90.0,
            "beta": 99.48925684662578,
            "gamma": 90.0,
            "volume": 141.9008835292446
        },
        "sites": [
            {
                "species": [
                    {
                        "element": "Hf",
                        "occu": 1
                    }
                ],
                "abc": [
                    0.27584775,
                    0.46205271,
                    0.70420059
                ],
                "xyz": [
                    0.8115260014208194,
                    2.407345149184365,
                    3.7000687697406214
                ],
                "label": "Hf",
                "properties": {}
            },
            {
                "species": [
                    {
                        "element": "Hf",
                        "occu": 1
                    }
                ],
                "abc": [
                    0.72415225,
                    0.96205271,
                    0.79579941
                ],
                "xyz": [
                    3.0548729885791808,
                    5.012399829184366,
                    4.181269730259379
                ],
                "label": "Hf",
                "properties": {}
            },
            {
                "species": [
                    {
                        "element": "Hf",
                        "occu": 1
                    }
                ],
                "abc": [
                    0.72415225,
                    0.53794729,
                    0.29579941
                ],
                "xyz": [
                    3.4938985185791807,
                    2.802764210815634,
                    1.5540881102593782
                ],
                "label": "Hf",
                "properties": {}
            },
            {
                "species": [
                    {
                        "element": "Hf",
                        "occu": 1
                    }
                ],
                "abc": [
                    0.27584775,
                    0.03794729,
                    0.20420059
                ],
                "xyz": [
                    1.2505515314208195,
                    0.1977095308156344,
                    1.0728871497406214
                ],
                "label": "Hf",
                "properties": {}
            },
            {
                "species": [
                    {
                        "element": "O",
                        "occu": 1
                    }
                ],
                "abc": [
                    0.44772006,
                    0.74234406,
                    0.98409691
                ],
                "xyz": [
                    1.4566586627179101,
                    3.867693735346401,
                    5.170710236990007
                ],
                "label": "O",
                "properties": {}
            },
            {
                "species": [
                    {
                        "element": "O",
                        "occu": 1
                    }
                ],
                "abc": [
                    0.55227994,
                    0.24234406,
                    0.51590309
                ],
                "xyz": [
                    2.4097403272820896,
                    1.2626390553464015,
                    2.710628263009993
                ],
                "label": "O",
                "properties": {}
            },
            {
                "species": [
                    {
                        "element": "O",
                        "occu": 1
                    }
                ],
                "abc": [
                    0.55227994,
                    0.25765594,
                    0.01590309
                ],
                "xyz": [
                    2.8487658572820895,
                    1.3424156246535985,
                    0.08344664300999322
                ],
                "label": "O",
                "properties": {}
            },
            {
                "species": [
                    {
                        "element": "O",
                        "occu": 1
                    }
                ],
                "abc": [
                    0.44772006,
                    0.75765594,
                    0.48409691
                ],
                "xyz": [
                    1.89568419271791,
                    3.9474703046535984,
                    2.5435286169900064
                ],
                "label": "O",
                "properties": {}
            },
            {
                "species": [
                    {
                        "element": "O",
                        "occu": 1
                    }
                ],
                "abc": [
                    0.07116325,
                    0.33173997,
                    0.34585957
                ],
                "xyz": [
                    0.06519060651879072,
                    1.728401522783119,
                    1.8172571255619367
                ],
                "label": "O",
                "properties": {}
            },
            {
                "species": [
                    {
                        "element": "O",
                        "occu": 1
                    }
                ],
                "abc": [
                    0.92883675,
                    0.83173997,
                    0.15414043
                ],
                "xyz": [
                    4.679259443481209,
                    4.333456202783119,
                    0.8097181344380632
                ],
                "label": "O",
                "properties": {}
            },
            {
                "species": [
                    {
                        "element": "O",
                        "occu": 1
                    }
                ],
                "abc": [
                    0.92883675,
                    0.66826003,
                    0.65414043
                ],
                "xyz": [
                    4.240233913481209,
                    3.481707837216881,
                    3.436899754438063
                ],
                "label": "O",
                "properties": {}
            },
            {
                "species": [
                    {
                        "element": "O",
                        "occu": 1
                    }
                ],
                "abc": [
                    0.07116325,
                    0.16826003,
                    0.84585957
                ],
                "xyz": [
                    -0.3738349234812092,
                    0.8766531572168808,
                    4.4444387455619365
                ],
                "label": "O",
                "properties": {}
            }
        ]
    },
    "spacegroup": {
        "source": "spglib",
        "symbol": "P2_1/c",
        "number": 14,
        "point_group": "2/m",
        "crystal_system": "monoclinic",
        "hall": "-P 2ybc"
    },
    "dielectric": {
        "epsilon_ionic": [
            [
                11.57535778,
                5e-08,
                0.78714701
            ],
            [
                5e-08,
                10.53063117,
                -9e-08
            ],
            [
                0.78714701,
                -9e-08,
                9.24769286
            ]
        ],
        "epsilon_ionic_avg": 10.451227270000002,
        "epsilon_ionic_eig": [
            11.81655429133888,
            9.00649634866112,
            10.530631170000008
        ],
        "epsilon_electronic": [
            [
                4.5541785,
                0.0,
                0.11615805
            ],
            [
                0.0,
                4.50761811,
                0.0
            ],
            [
                0.11616485,
                0.0,
                4.332079
            ]
        ],
        "epsilon_electronic_avg": 4.464625203333333,
        "epsilon_electronic_eig": [
            4.603831984035924,
            4.282425515964076,
            4.50761811
        ]
    },
    "phonon": {
        "lowest_freq": -0.017681580473516624,
        "frequency": [
            -0.017681580473516624,
            -0.012129317769445327,
            -0.007410693658119493,
            3.1062232032920103,
            3.9822769040351345,
            4.168525324368025,
            4.264091059131349,
            4.423821721656147,
            4.895790532618037,
            5.5118657680347605,
            7.100294543919622,
            7.359161758271803,
            7.53016406097167,
            7.84420306829374,
            7.9086120323752045,
            9.474609115154541,
            9.65992355550172,
            9.680774569640192,
            10.435031541428755,
            10.724633510615009,
            11.540175819024315,
            11.960241700099251,
            12.05603054691942,
            12.239517130223705,
            15.052230602375083,
            15.39978403549655,
            15.55431797251752,
            15.712363238285976,
            16.04078543187979,
            17.14219280573048,
            17.894927352715026,
            18.866116056497088,
            19.41953678466216,
            19.82439128917883,
            21.293400897253214,
            22.656109197222264
        ]
    },
    "born_effective_charge": {
        "avg_abs_trace": 3.3504583333333335,
        "tensors": [
            [
                [
                    5.17383,
                    0.33098,
                    0.19088
                ],
                [
                    0.16634,
                    5.12044,
                    -0.18118
                ],
                [
                    0.20268,
                    -0.3175,
                    4.78278
                ]
            ],
            [
                [
                    5.17384,
                    -0.33099,
                    0.19095
                ],
                [
                    -0.16634,
                    5.12044,
                    0.18118
                ],
                [
                    0.20271,
                    0.31745,
                    4.78282
                ]
            ],
            [
                [
                    5.17384,
                    0.33099,
                    0.19095
                ],
                [
                    0.16641,
                    5.12041,
                    -0.18139
                ],
                [
                    0.20271,
                    -0.31745,
                    4.78282
                ]
            ],
            [
                [
                    5.17383,
                    -0.33098,
                    0.19088
                ],
                [
                    -0.16641,
                    5.12041,
                    0.18139
                ],
                [
                    0.20268,
                    0.3175,
                    4.78278
                ]
            ],
            [
                [
                    -2.32546,
                    -0.03936,
                    0.03062
                ],
                [
                    -0.10315,
                    -2.64989,
                    -0.3327
                ],
                [
                    -0.02541,
                    -0.41052,
                    -2.51252
                ]
            ],
            [
                [
                    -2.32551,
                    0.03932,
                    0.03064
                ],
                [
                    0.10315,
                    -2.64989,
                    0.3327
                ],
                [
                    -0.02533,
                    0.41054,
                    -2.51244
                ]
            ],
            [
                [
                    -2.32551,
                    -0.03932,
                    0.03064
                ],
                [
                    -0.10365,
                    -2.64995,
                    -0.33279
                ],
                [
                    -0.02533,
                    -0.41054,
                    -2.51244
                ]
            ],
            [
                [
                    -2.32546,
                    0.03936,
                    0.03062
                ],
                [
                    0.10365,
                    -2.64995,
                    0.33279
                ],
                [
                    -0.02541,
                    0.41052,
                    -2.51252
                ]
            ],
            [
                [
                    -2.84834,
                    0.94039,
                    -0.22155
                ],
                [
                    1.11792,
                    -2.47046,
                    -0.62795
                ],
                [
                    -0.17729,
                    -0.65123,
                    -2.27033
                ]
            ],
            [
                [
                    -2.84836,
                    -0.94023,
                    -0.22154
                ],
                [
                    -1.11792,
                    -2.47046,
                    0.62795
                ],
                [
                    -0.17736,
                    0.65081,
                    -2.27032
                ]
            ],
            [
                [
                    -2.84836,
                    0.94023,
                    -0.22154
                ],
                [
                    1.11804,
                    -2.47055,
                    -0.62752
                ],
                [
                    -0.17736,
                    -0.65081,
                    -2.27032
                ]
            ],
            [
                [
                    -2.84834,
                    -0.94039,
                    -0.22155
                ],
                [
                    -1.11804,
                    -2.47055,
                    0.62752
                ],
                [
                    -0.17729,
                    0.65123,
                    -2.27033
                ]
            ]
        ]
    },
    "band_gap": 4.3034,
    "is_direct": false,
    "formula": "HfO2"
}