{
    "mp_id": "mp-31116",
    "nelements": 3,
    "nsites": 20,
    "elements": [
        "La",
        "O",
        "Sc"
    ],
    "structure": {
        "@module": "pymatgen.core.structure",
        "@class": "Structure",
        "charge": null,
        "lattice": {
            "matrix": [
                [
                    5.75732765,
                    0.0,
                    0.0
                ],
                [
                    0.0,
                    8.02466224,
                    0.0
                ],
                [
                    0.0,
                    0.0,
                    5.63211759
                ]
            ],
            "a": 5.75732765,
            "b": 8.02466224,
            "c": 5.63211759,
            "alpha": 90.0,
            "beta": 90.0,
            "gamma": 90.0,
            "volume": 260.20726710225875
        },
        "sites": [
            {
                "species": [
                    {
                        "element": "La",
                        "occu": 1
                    }
                ],
                "abc": [
                    0.95376743,
                    0.25,
                    0.01171739
                ],
                "xyz": [
                    5.491151596408439,
                    2.00616556,
                    0.0659937183278901
                ],
                "label": "La",
                "properties": {}
            },
            {
                "species": [
                    {
                        "element": "La",
                        "occu": 1
                    }
                ],
                "abc": [
                    0.54623257,
                    0.75,
                    0.51171739
                ],
                "xyz": [
                    3.1448398785915606,
                    6.01849668,
                    2.8820525133278903
                ],
                "label": "La",
                "properties": {}
            },
            {
                "species": [
                    {
                        "element": "La",
                        "occu": 1
                    }
                ],
                "abc": [
                    0.45376743,
                    0.25,
                    0.48828261
                ],
                "xyz": [
                    2.6124877714084396,
                    2.00616556,
                    2.7500650766721098
                ],
                "label": "La",
                "properties": {}
            },
            {
                "species": [
                    {
                        "element": "La",
                        "occu": 1
                    }
                ],
                "abc": [
                    0.04623257,
                    0.75,
                    0.98828261
                ],
                "xyz": [
                    0.2661760535915605,
                    6.01849668,
                    5.56612387167211
                ],
                "label": "La",
                "properties": {}
            },
            {
                "species": [
                    {
                        "element": "Sc",
                        "occu": 1
                    }
                ],
                "abc": [
                    0.5,
                    0.0,
                    0.0
                ],
                "xyz": [
                    2.878663825,
                    0.0,
                    0.0
                ],
                "label": "Sc",
                "properties": {}
            },
            {
                "species": [
                    {
                        "element": "Sc",
                        "occu": 1
                    }
                ],
                "abc": [
                    0.0,
                    0.0,
                    0.5
                ],
                "xyz": [
                    0.0,
                    0.0,
                    2.816058795
                ],
                "label": "Sc",
                "properties": {}
            },
            {
                "species": [
                    {
                        "element": "Sc",
                        "occu": 1
                    }
                ],
                "abc": [
                    0.0,
                    0.5,
                    0.5
                ],
                "xyz": [
                    0.0,
                    4.01233112,
                    2.816058795
                ],
                "label": "Sc",
                "properties": {}
            },
            {
                "species": [
                    {
                        "element": "Sc",
                        "occu": 1
                    }
                ],
                "abc": [
                    0.5,
                    0.5,
                    0.0
                ],
                "xyz": [
                    2.878663825,
                    4.01233112,
                    0.0
                ],
                "label": "Sc",
                "properties": {}
            },
            {
                "species": [
                    {
                        "element": "O",
                        "occu": 1
                    }
                ],
                "abc": [
                    0.5332112,
                    0.25,
                    0.90047042
                ],
                "xyz": [
                    3.06987158504968,
                    2.00616556,
                    5.071555291756688
                ],
                "label": "O",
                "properties": {}
            },
            {
                "species": [
                    {
                        "element": "O",
                        "occu": 1
                    }
                ],
                "abc": [
                    0.9667888,
                    0.75,
                    0.40047042
                ],
                "xyz": [
                    5.56611988995032,
                    6.01849668,
                    2.2554964967566877
                ],
                "label": "O",
                "properties": {}
            },
            {
                "species": [
                    {
                        "element": "O",
                        "occu": 1
                    }
                ],
                "abc": [
                    0.0332112,
                    0.25,
                    0.59952958
                ],
                "xyz": [
                    0.19120776004968001,
                    2.00616556,
                    3.3766210932433123
                ],
                "label": "O",
                "properties": {}
            },
            {
                "species": [
                    {
                        "element": "O",
                        "occu": 1
                    }
                ],
                "abc": [
                    0.4667888,
                    0.75,
                    0.09952958
                ],
                "xyz": [
                    2.68745606495032,
                    6.01849668,
                    0.5605622982433123
                ],
                "label": "O",
                "properties": {}
            },
            {
                "species": [
                    {
                        "element": "O",
                        "occu": 1
                    }
                ],
                "abc": [
                    0.29589945,
                    0.94687935,
                    0.7042107
                ],
                "xyz": [
                    1.7035900851047925,
                    7.598386965780744,
                    3.966197470536213
                ],
                "label": "O",
                "properties": {}
            },
            {
                "species": [
                    {
                        "element": "O",
                        "occu": 1
                    }
                ],
                "abc": [
                    0.20410055,
                    0.05312065,
                    0.2042107
                ],
                "xyz": [
                    1.1750737398952074,
                    0.426275274219256,
                    1.150138675536213
                ],
                "label": "O",
                "properties": {}
            },
            {
                "species": [
                    {
                        "element": "O",
                        "occu": 1
                    }
                ],
                "abc": [
                    0.79589945,
                    0.55312065,
                    0.7957893
                ],
                "xyz": [
                    4.582253910104792,
                    4.4386063942192555,
                    4.481978914463787
                ],
                "label": "O",
                "properties": {}
            },
            {
                "species": [
                    {
                        "element": "O",
                        "occu": 1
                    }
                ],
                "abc": [
                    0.70410055,
                    0.44687935,
                    0.2957893
                ],
                "xyz": [
                    4.053737564895208,
                    3.586055845780744,
                    1.665920119463787
                ],
                "label": "O",
                "properties": {}
            },
            {
                "species": [
                    {
                        "element": "O",
                        "occu": 1
                    }
                ],
                "abc": [
                    0.70410055,
                    0.05312065,
                    0.2957893
                ],
                "xyz": [
                    4.053737564895208,
                    0.426275274219256,
                    1.665920119463787
                ],
                "label": "O",
                "properties": {}
            },
            {
                "species": [
                    {
                        "element": "O",
                        "occu": 1
                    }
                ],
                "abc": [
                    0.79589945,
                    0.94687935,
                    0.7957893
                ],
                "xyz": [
                    4.582253910104792,
                    7.598386965780744,
                    4.481978914463787
                ],
                "label": "O",
                "properties": {}
            },
            {
                "species": [
                    {
                        "element": "O",
                        "occu": 1
                    }
                ],
                "abc": [
                    0.20410055,
                    0.44687935,
                    0.2042107
                ],
                "xyz": [
                    1.1750737398952074,
                    3.586055845780744,
                    1.150138675536213
                ],
                "label": "O",
                "properties": {}
            },
            {
                "species": [
                    {
                        "element": "O",
                        "occu": 1
                    }
                ],
                "abc": [
                    0.29589945,
                    0.55312065,
                    0.7042107
                ],
                "xyz": [
                    1.7035900851047925,
                    4.4386063942192555,
                    3.966197470536213
                ],
                "label": "O",
                "properties": {}
            }
        ]
    },
    "spacegroup": {
        "source": "spglib",
        "symbol": "Pnma",
        "number": 62,
        "point_group": "mmm",
        "crystal_system": "orthorhombic",
        "hall": "-P 2ac 2n"
    },
    "dielectric": {
        "epsilon_ionic": [
            [
                23.06952543,
                -3e-08,
                4e-08
            ],
            [
                -3e-08,
                26.43913505,
                3e-08
            ],
            [
                4e-08,
                3e-08,
                26.34029363
            ]
        ],
        "epsilon_ionic_avg": 25.28298470333334,
        "epsilon_ionic_eig": [
            23.069525430000006,
            26.340293629999994,
            26.439135050000015
        ],
        "epsilon_electronic": [
            [
                5.09750697,
                0.0,
                0.0
            ],
            [
                0.0,
                4.97951583,
                0.0
            ],
            [
                0.0,
                0.0,
                5.1813372
            ]
        ],
        "epsilon_electronic_avg": 5.08612,
        "epsilon_electronic_eig": [
            5.09750697,
            4.97951583,
            5.1813372
        ]
    },
    "phonon": {
        "lowest_freq": -0.16943107799096874,
        "frequency": [
            -0.16943107799096874,
            -0.07177696088933383,
            -0.025979476626389893,
            2.7085404325185563,
            3.1705319958908884,
            3.2030105910910738,
            3.2975169116830885,
            3.384580284300187,
            3.536521253169287,
            3.644296475892301,
            4.068224616473924,
            4.298977106354859,
            4.422084779799513,
            4.688334159764511,
            4.755795287513314,
            5.113587797661161,
            5.127611095550885,
            5.568154105429156,
            5.959697054294575,
            6.509112717534748,
            6.627990301242271,
            6.7870042691638774,
            7.31859898400348,
            7.46689803172249,
            8.049273996334865,
            8.06818781362941,
            8.24147578613137,
            8.42012398813707,
            8.720977751874878,
            9.29128598198503,
            9.422321586554176,
            9.554507189810506,
            9.603353026320855,
            9.657207122782442,
            9.733156411372315,
            10.254345609096594,
            10.551768194062662,
            10.925801538059194,
            10.93587939521694,
            11.072247805906281,
            11.822541993740805,
            11.883747324493072,
            11.991726492924753,
            12.192801693051667,
            12.565381973899505,
            13.069255619986677,
            13.82285659974475,
            13.976765673641374,
            14.2853769362533,
            14.488911527389952,
            14.54647227099594,
            14.546903462427997,
            14.555343971163595,
            14.646613267513072,
            14.764452872158033,
            15.139794566582221,
            15.852067166243328,
            18.459515236976497,
            19.72361357356416,
            20.296204884498664
        ]
    },
    "born_effective_charge": {
        "avg_abs_trace": 3.342550333333333,
        "tensors": [
            [
                [
                    4.17845,
                    0.0,
                    0.13321
                ],
                [
                    4e-05,
                    3.90261,
                    0.00011
                ],
                [
                    0.33721,
                    0.0,
                    4.39484
                ]
            ],
            [
                [
                    4.17799,
                    0.0,
                    -0.13372
                ],
                [
                    -4e-05,
                    3.90261,
                    0.00011
                ],
                [
                    -0.33721,
                    0.0,
                    4.39484
                ]
            ],
            [
                [
                    4.17845,
                    0.0,
                    -0.13321
                ],
                [
                    4e-05,
                    3.90261,
                    -0.00011
                ],
                [
                    -0.33709,
                    0.0,
                    4.39405
                ]
            ],
            [
                [
                    4.17799,
                    0.0,
                    0.13372
                ],
                [
                    -4e-05,
                    3.90261,
                    -0.00011
                ],
                [
                    0.33709,
                    0.0,
                    4.39405
                ]
            ],
            [
                [
                    4.17204,
                    0.20237,
                    -0.133
                ],
                [
                    0.11559,
                    4.18891,
                    0.15807
                ],
                [
                    -0.12424,
                    0.10923,
                    4.2329
                ]
            ],
            [
                [
                    4.17204,
                    0.20237,
                    0.133
                ],
                [
                    0.11559,
                    4.18891,
                    -0.15807
                ],
                [
                    0.12424,
                    -0.10923,
                    4.2329
                ]
            ],
            [
                [
                    4.17204,
                    -0.20237,
                    0.133
                ],
                [
                    -0.11559,
                    4.18891,
                    0.15807
                ],
                [
                    0.12424,
                    0.10923,
                    4.2329
                ]
            ],
            [
                [
                    4.17204,
                    -0.20237,
                    -0.133
                ],
                [
                    -0.11559,
                    4.18891,
                    -0.15807
                ],
                [
                    -0.12424,
                    -0.10923,
                    4.2329
                ]
            ],
            [
                [
                    -2.29022,
                    0.0,
                    -0.33068
                ],
                [
                    4e-05,
                    -3.34878,
                    0.00011
                ],
                [
                    -0.35001,
                    0.0,
                    -2.79049
                ]
            ],
            [
                [
                    -2.28995,
                    0.0,
                    0.33083
                ],
                [
                    -4e-05,
                    -3.34878,
                    0.00011
                ],
                [
                    0.35001,
                    0.0,
                    -2.79049
                ]
            ],
            [
                [
                    -2.29022,
                    0.0,
                    0.33068
                ],
                [
                    4e-05,
                    -3.34878,
                    -0.00011
                ],
                [
                    0.34965,
                    0.0,
                    -2.7909
                ]
            ],
            [
                [
                    -2.28995,
                    0.0,
                    -0.33083
                ],
                [
                    -4e-05,
                    -3.34878,
                    -0.00011
                ],
                [
                    -0.34965,
                    0.0,
                    -2.7909
                ]
            ],
            [
                [
                    -3.0301,
                    0.17298,
                    -0.46556
                ],
                [
                    0.23668,
                    -2.3714,
                    -0.02847
                ],
                [
                    -0.44965,
                    -0.01645,
                    -2.91834
                ]
            ],
            [
                [
                    -3.03008,
                    0.17271,
                    0.46595
                ],
                [
                    0.23647,
                    -2.37134,
                    0.02832
                ],
                [
                    0.44965,
                    0.01645,
                    -2.91834
                ]
            ],
            [
                [
                    -3.0301,
                    -0.17298,
                    0.46556
                ],
                [
                    -0.23647,
                    -2.37134,
                    -0.02832
                ],
                [
                    0.44946,
                    -0.01716,
                    -2.91831
                ]
            ],
            [
                [
                    -3.03008,
                    -0.17271,
                    -0.46595
                ],
                [
                    -0.23668,
                    -2.3714,
                    0.02847
                ],
                [
                    -0.44946,
                    0.01716,
                    -2.91831
                ]
            ],
            [
                [
                    -3.03008,
                    0.17271,
                    -0.46595
                ],
                [
                    0.23647,
                    -2.37134,
                    -0.02832
                ],
                [
                    -0.44946,
                    -0.01716,
                    -2.91831
                ]
            ],
            [
                [
                    -3.0301,
                    0.17298,
                    0.46556
                ],
                [
                    0.23668,
                    -2.3714,
                    0.02847
                ],
                [
                    0.44946,
                    0.01716,
                    -2.91831
                ]
            ],
            [
                [
                    -3.03008,
                    -0.17271,
                    0.46595
                ],
                [
                    -0.23668,
                    -2.3714,
                    -0.02847
                ],
                [
                    0.44965,
                    -0.01645,
                    -2.91834
                ]
            ],
            [
                [
                    -3.0301,
                    -0.17298,
                    -0.46556
                ],
                [
                    -0.23647,
                    -2.37134,
                    0.02832
                ],
                [
                    -0.44965,
                    0.01645,
                    -2.91834
                ]
            ]
        ]
    },
    "band_gap": 3.8728,
    "is_direct": true,
    "formula": "LaScO3"
}