{
    "mp_id": "mp-3917",
    "nelements": 3,
    "nsites": 28,
    "elements": [
        "Cd",
        "Ge",
        "O"
    ],
    "structure": {
        "@module": "pymatgen.core.structure",
        "@class": "Structure",
        "charge": null,
        "lattice": {
            "matrix": [
                [
                    11.2244581,
                    0.0,
                    0.0
                ],
                [
                    0.0,
                    6.59761916,
                    0.0
                ],
                [
                    0.0,
                    0.0,
                    5.24785506
                ]
            ],
            "a": 11.2244581,
            "b": 6.59761916,
            "c": 5.24785506,
            "alpha": 90.0,
            "beta": 90.0,
            "gamma": 90.0,
            "volume": 388.6283311733458
        },
        "sites": [
            {
                "species": [
                    {
                        "element": "Cd",
                        "occu": 1
                    }
                ],
                "abc": [
                    0.77973719,
                    0.75,
                    0.4893757
                ],
                "xyz": [
                    8.752127418166738,
                    4.94821437,
                    2.568172743486042
                ],
                "label": "Cd",
                "properties": {}
            },
            {
                "species": [
                    {
                        "element": "Cd",
                        "occu": 1
                    }
                ],
                "abc": [
                    0.72026281,
                    0.25,
                    0.9893757
                ],
                "xyz": [
                    8.084559731833261,
                    1.64940479,
                    5.192100273486042
                ],
                "label": "Cd",
                "properties": {}
            },
            {
                "species": [
                    {
                        "element": "Cd",
                        "occu": 1
                    }
                ],
                "abc": [
                    0.22026281,
                    0.25,
                    0.5106243
                ],
                "xyz": [
                    2.472330681833261,
                    1.64940479,
                    2.6796823165139583
                ],
                "label": "Cd",
                "properties": {}
            },
            {
                "species": [
                    {
                        "element": "Cd",
                        "occu": 1
                    }
                ],
                "abc": [
                    0.27973719,
                    0.75,
                    0.0106243
                ],
                "xyz": [
                    3.1398983681667394,
                    4.94821437,
                    0.055754786513958
                ],
                "label": "Cd",
                "properties": {}
            },
            {
                "species": [
                    {
                        "element": "Cd",
                        "occu": 1
                    }
                ],
                "abc": [
                    0.5,
                    0.5,
                    0.5
                ],
                "xyz": [
                    5.61222905,
                    3.29880958,
                    2.62392753
                ],
                "label": "Cd",
                "properties": {}
            },
            {
                "species": [
                    {
                        "element": "Cd",
                        "occu": 1
                    }
                ],
                "abc": [
                    0.0,
                    0.5,
                    0.0
                ],
                "xyz": [
                    0.0,
                    3.29880958,
                    0.0
                ],
                "label": "Cd",
                "properties": {}
            },
            {
                "species": [
                    {
                        "element": "Cd",
                        "occu": 1
                    }
                ],
                "abc": [
                    0.5,
                    0.0,
                    0.5
                ],
                "xyz": [
                    5.61222905,
                    0.0,
                    2.62392753
                ],
                "label": "Cd",
                "properties": {}
            },
            {
                "species": [
                    {
                        "element": "Cd",
                        "occu": 1
                    }
                ],
                "abc": [
                    0.0,
                    0.0,
                    0.0
                ],
                "xyz": [
                    0.0,
                    0.0,
                    0.0
                ],
                "label": "Cd",
                "properties": {}
            },
            {
                "species": [
                    {
                        "element": "Ge",
                        "occu": 1
                    }
                ],
                "abc": [
                    0.59807898,
                    0.75,
                    0.93369375
                ],
                "xyz": [
                    6.713112451500738,
                    4.94821437,
                    4.899889470427875
                ],
                "label": "Ge",
                "properties": {}
            },
            {
                "species": [
                    {
                        "element": "Ge",
                        "occu": 1
                    }
                ],
                "abc": [
                    0.90192102,
                    0.25,
                    0.43369375
                ],
                "xyz": [
                    10.123574698499262,
                    1.64940479,
                    2.275961940427875
                ],
                "label": "Ge",
                "properties": {}
            },
            {
                "species": [
                    {
                        "element": "Ge",
                        "occu": 1
                    }
                ],
                "abc": [
                    0.40192102,
                    0.25,
                    0.06630625
                ],
                "xyz": [
                    4.511345648499262,
                    1.64940479,
                    0.347965589572125
                ],
                "label": "Ge",
                "properties": {}
            },
            {
                "species": [
                    {
                        "element": "Ge",
                        "occu": 1
                    }
                ],
                "abc": [
                    0.09807898,
                    0.75,
                    0.56630625
                ],
                "xyz": [
                    1.1008834015007378,
                    4.94821437,
                    2.971893119572125
                ],
                "label": "Ge",
                "properties": {}
            },
            {
                "species": [
                    {
                        "element": "O",
                        "occu": 1
                    }
                ],
                "abc": [
                    0.33453883,
                    0.46402565,
                    0.22404613
                ],
                "xyz": [
                    3.755017080158023,
                    3.061464519171454,
                    1.1757616169939178
                ],
                "label": "O",
                "properties": {}
            },
            {
                "species": [
                    {
                        "element": "O",
                        "occu": 1
                    }
                ],
                "abc": [
                    0.16546117,
                    0.53597435,
                    0.72404613
                ],
                "xyz": [
                    1.857211969841977,
                    3.536154640828546,
                    3.7996891469939174
                ],
                "label": "O",
                "properties": {}
            },
            {
                "species": [
                    {
                        "element": "O",
                        "occu": 1
                    }
                ],
                "abc": [
                    0.66546117,
                    0.96402565,
                    0.77595387
                ],
                "xyz": [
                    7.469441019841978,
                    6.360274099171454,
                    4.072093443006082
                ],
                "label": "O",
                "properties": {}
            },
            {
                "species": [
                    {
                        "element": "O",
                        "occu": 1
                    }
                ],
                "abc": [
                    0.83453883,
                    0.03597435,
                    0.27595387
                ],
                "xyz": [
                    9.367246130158023,
                    0.237345060828546,
                    1.4481659130060822
                ],
                "label": "O",
                "properties": {}
            },
            {
                "species": [
                    {
                        "element": "O",
                        "occu": 1
                    }
                ],
                "abc": [
                    0.66546117,
                    0.53597435,
                    0.77595387
                ],
                "xyz": [
                    7.469441019841978,
                    3.536154640828546,
                    4.072093443006082
                ],
                "label": "O",
                "properties": {}
            },
            {
                "species": [
                    {
                        "element": "O",
                        "occu": 1
                    }
                ],
                "abc": [
                    0.83453883,
                    0.46402565,
                    0.27595387
                ],
                "xyz": [
                    9.367246130158023,
                    3.061464519171454,
                    1.4481659130060822
                ],
                "label": "O",
                "properties": {}
            },
            {
                "species": [
                    {
                        "element": "O",
                        "occu": 1
                    }
                ],
                "abc": [
                    0.33453883,
                    0.03597435,
                    0.22404613
                ],
                "xyz": [
                    3.755017080158023,
                    0.237345060828546,
                    1.1757616169939178
                ],
                "label": "O",
                "properties": {}
            },
            {
                "species": [
                    {
                        "element": "O",
                        "occu": 1
                    }
                ],
                "abc": [
                    0.16546117,
                    0.96402565,
                    0.72404613
                ],
                "xyz": [
                    1.857211969841977,
                    6.360274099171454,
                    3.7996891469939174
                ],
                "label": "O",
                "properties": {}
            },
            {
                "species": [
                    {
                        "element": "O",
                        "occu": 1
                    }
                ],
                "abc": [
                    0.45085411,
                    0.75,
                    0.7878367
                ],
                "xyz": [
                    5.06059306690779,
                    4.94821437,
                    4.134452812548702
                ],
                "label": "O",
                "properties": {}
            },
            {
                "species": [
                    {
                        "element": "O",
                        "occu": 1
                    }
                ],
                "abc": [
                    0.04914589,
                    0.25,
                    0.2878367
                ],
                "xyz": [
                    0.551635983092209,
                    1.64940479,
                    1.510525282548702
                ],
                "label": "O",
                "properties": {}
            },
            {
                "species": [
                    {
                        "element": "O",
                        "occu": 1
                    }
                ],
                "abc": [
                    0.54914589,
                    0.25,
                    0.2121633
                ],
                "xyz": [
                    6.163865033092209,
                    1.64940479,
                    1.113402247451298
                ],
                "label": "O",
                "properties": {}
            },
            {
                "species": [
                    {
                        "element": "O",
                        "occu": 1
                    }
                ],
                "abc": [
                    0.95085411,
                    0.75,
                    0.7121633
                ],
                "xyz": [
                    10.67282211690779,
                    4.94821437,
                    3.7373297774512984
                ],
                "label": "O",
                "properties": {}
            },
            {
                "species": [
                    {
                        "element": "O",
                        "occu": 1
                    }
                ],
                "abc": [
                    0.09693827,
                    0.75,
                    0.22808543
                ],
                "xyz": [
                    1.088079549901487,
                    4.94821437,
                    1.1969592779377758
                ],
                "label": "O",
                "properties": {}
            },
            {
                "species": [
                    {
                        "element": "O",
                        "occu": 1
                    }
                ],
                "abc": [
                    0.40306173,
                    0.25,
                    0.72808543
                ],
                "xyz": [
                    4.524149500098513,
                    1.64940479,
                    3.820886807937776
                ],
                "label": "O",
                "properties": {}
            },
            {
                "species": [
                    {
                        "element": "O",
                        "occu": 1
                    }
                ],
                "abc": [
                    0.90306173,
                    0.25,
                    0.77191457
                ],
                "xyz": [
                    10.136378550098513,
                    1.64940479,
                    4.0508957820622244
                ],
                "label": "O",
                "properties": {}
            },
            {
                "species": [
                    {
                        "element": "O",
                        "occu": 1
                    }
                ],
                "abc": [
                    0.59693827,
                    0.75,
                    0.27191457
                ],
                "xyz": [
                    6.700308599901486,
                    4.94821437,
                    1.4269682520622242
                ],
                "label": "O",
                "properties": {}
            }
        ]
    },
    "spacegroup": {
        "source": "spglib",
        "symbol": "Pnma",
        "number": 62,
        "point_group": "mmm",
        "crystal_system": "orthorhombic",
        "hall": "-P 2ac 2n"
    },
    "dielectric": {
        "epsilon_ionic": [
            [
                5.83105976,
                -4e-08,
                -0.0
            ],
            [
                -4e-08,
                5.24976021,
                -1e-08
            ],
            [
                -0.0,
                -1e-08,
                5.04257611
            ]
        ],
        "epsilon_ionic_avg": 5.374465359999999,
        "epsilon_ionic_eig": [
            5.831059760000001,
            5.249760209999999,
            5.04257611
        ],
        "epsilon_electronic": [
            [
                4.19434396,
                0.0,
                0.0
            ],
            [
                0.0,
                4.3872403,
                -0.0
            ],
            [
                0.0,
                -0.0,
                4.51345592
            ]
        ],
        "epsilon_electronic_avg": 4.365013393333333,
        "epsilon_electronic_eig": [
            4.19434396,
            4.3872403,
            4.51345592
        ]
    },
    "phonon": {
        "lowest_freq": -0.07530176897367905,
        "frequency": [
            -0.07530176897367905,
            -0.05987931914673691,
            -0.03974648735142856,
            0.953013182068263,
            1.7407231023826255,
            1.992990828654632,
            2.03636992115202,
            2.170272523834246,
            2.318670197290512,
            2.673638607369159,
            2.693016089579761,
            2.7300823404337584,
            2.8402090914609013,
            2.8615707363882,
            3.0979077628437772,
            3.1488895085509956,
            3.2366341884981007,
            3.2423846138034453,
            3.291640851997023,
            3.479489760380261,
            3.7095642156915165,
            4.195110390645564,
            4.30437046101224,
            4.698744268657618,
            5.1070868006584105,
            5.140559541130955,
            5.148187891415529,
            5.164559546418976,
            5.47062478761581,
            5.516845775329199,
            5.60187593789432,
            5.750518179587176,
            5.918488312648153,
            5.963864922421598,
            6.059606782680496,
            6.078448079114136,
            6.646072235450789,
            6.683007989189355,
            6.892111835279278,
            6.994423508395117,
            7.444690425052538,
            7.817123314683713,
            8.062084792450483,
            8.392158509273797,
            8.635587838319314,
            9.049819845517465,
            9.088411976331976,
            9.656885686399187,
            9.768160418385385,
            9.84162878497403,
            9.852772218723171,
            9.87368593413264,
            9.969625134778537,
            10.140734265268936,
            10.668423309054264,
            11.127609184900601,
            11.149514663244112,
            11.30822736126976,
            11.485458211481745,
            11.65237331939146,
            12.22262985400853,
            12.26415972879284,
            12.404810977630603,
            12.448831011651706,
            12.530346666776616,
            12.58250427866977,
            12.867964197022632,
            13.264518604593517,
            19.123176002863904,
            19.285469965144596,
            19.660956974682254,
            19.69548130691303,
            19.74352325685127,
            20.217418197315002,
            20.268355921536294,
            20.971389623309946,
            21.232934784348668,
            21.29939866410588,
            21.315287284496343,
            21.319463865500115,
            21.702124723099587,
            21.723818710152308,
            21.977408936334697,
            21.980939194273134
        ]
    },
    "born_effective_charge": {
        "avg_abs_trace": 2.2351692857142855,
        "tensors": [
            [
                [
                    2.76577,
                    0.0,
                    -0.13598
                ],
                [
                    0.0,
                    2.53011,
                    -8e-05
                ],
                [
                    0.02192,
                    0.0,
                    2.22131
                ]
            ],
            [
                [
                    2.76572,
                    0.0,
                    0.13598
                ],
                [
                    -0.0,
                    2.53011,
                    -8e-05
                ],
                [
                    -0.02192,
                    0.0,
                    2.22131
                ]
            ],
            [
                [
                    2.76572,
                    0.0,
                    -0.13598
                ],
                [
                    -0.0,
                    2.53011,
                    8e-05
                ],
                [
                    0.02203,
                    0.0,
                    2.2213
                ]
            ],
            [
                [
                    2.76577,
                    0.0,
                    0.13598
                ],
                [
                    0.0,
                    2.53011,
                    8e-05
                ],
                [
                    -0.02203,
                    0.0,
                    2.2213
                ]
            ],
            [
                [
                    1.98405,
                    0.39286,
                    0.11077
                ],
                [
                    0.38792,
                    2.34956,
                    0.25872
                ],
                [
                    0.06142,
                    0.08153,
                    2.58489
                ]
            ],
            [
                [
                    1.98405,
                    0.39286,
                    -0.11077
                ],
                [
                    0.38792,
                    2.34956,
                    -0.25872
                ],
                [
                    -0.06142,
                    -0.08153,
                    2.58489
                ]
            ],
            [
                [
                    1.98405,
                    -0.39286,
                    0.11077
                ],
                [
                    -0.38792,
                    2.34956,
                    -0.25872
                ],
                [
                    0.06142,
                    -0.08153,
                    2.58489
                ]
            ],
            [
                [
                    1.98405,
                    -0.39286,
                    -0.11077
                ],
                [
                    -0.38792,
                    2.34956,
                    0.25872
                ],
                [
                    -0.06142,
                    0.08153,
                    2.58489
                ]
            ],
            [
                [
                    2.54562,
                    0.0,
                    0.00622
                ],
                [
                    2e-05,
                    2.96568,
                    0.00017
                ],
                [
                    0.09449,
                    0.0,
                    3.52201
                ]
            ],
            [
                [
                    2.54566,
                    0.0,
                    -0.0061
                ],
                [
                    -2e-05,
                    2.96568,
                    0.00017
                ],
                [
                    -0.09449,
                    0.0,
                    3.52201
                ]
            ],
            [
                [
                    2.54566,
                    0.0,
                    0.0061
                ],
                [
                    -2e-05,
                    2.96568,
                    -0.00017
                ],
                [
                    0.09446,
                    0.0,
                    3.52261
                ]
            ],
            [
                [
                    2.54562,
                    0.0,
                    -0.00622
                ],
                [
                    2e-05,
                    2.96568,
                    -0.00017
                ],
                [
                    -0.09446,
                    0.0,
                    3.52261
                ]
            ],
            [
                [
                    -1.75183,
                    0.23964,
                    0.094
                ],
                [
                    0.31636,
                    -2.27881,
                    -0.06689
                ],
                [
                    0.01699,
                    0.05202,
                    -1.82614
                ]
            ],
            [
                [
                    -1.75195,
                    0.23957,
                    -0.09395
                ],
                [
                    0.31675,
                    -2.27901,
                    0.06694
                ],
                [
                    -0.01699,
                    -0.05202,
                    -1.82614
                ]
            ],
            [
                [
                    -1.75195,
                    -0.23957,
                    0.09395
                ],
                [
                    -0.31636,
                    -2.27881,
                    0.06689
                ],
                [
                    0.01697,
                    -0.05233,
                    -1.82622
                ]
            ],
            [
                [
                    -1.75183,
                    -0.23964,
                    -0.094
                ],
                [
                    -0.31675,
                    -2.27901,
                    -0.06694
                ],
                [
                    -0.01697,
                    0.05233,
                    -1.82622
                ]
            ],
            [
                [
                    -1.75195,
                    0.23957,
                    0.09395
                ],
                [
                    0.31675,
                    -2.27901,
                    -0.06694
                ],
                [
                    0.01697,
                    0.05233,
                    -1.82622
                ]
            ],
            [
                [
                    -1.75183,
                    0.23964,
                    -0.094
                ],
                [
                    0.31636,
                    -2.27881,
                    0.06689
                ],
                [
                    -0.01697,
                    -0.05233,
                    -1.82622
                ]
            ],
            [
                [
                    -1.75183,
                    -0.23964,
                    0.094
                ],
                [
                    -0.31675,
                    -2.27901,
                    0.06694
                ],
                [
                    0.01699,
                    -0.05202,
                    -1.82614
                ]
            ],
            [
                [
                    -1.75195,
                    -0.23957,
                    -0.09395
                ],
                [
                    -0.31636,
                    -2.27881,
                    -0.06689
                ],
                [
                    -0.01699,
                    0.05202,
                    -1.82614
                ]
            ],
            [
                [
                    -2.25711,
                    0.0,
                    -0.03035
                ],
                [
                    0.00011,
                    -1.70645,
                    -0.00024
                ],
                [
                    -0.05101,
                    0.0,
                    -1.86634
                ]
            ],
            [
                [
                    -2.25681,
                    0.0,
                    0.03034
                ],
                [
                    -0.00011,
                    -1.70645,
                    -0.00024
                ],
                [
                    0.05101,
                    0.0,
                    -1.86634
                ]
            ],
            [
                [
                    -2.25681,
                    0.0,
                    -0.03034
                ],
                [
                    -0.00011,
                    -1.70645,
                    0.00024
                ],
                [
                    -0.05118,
                    0.0,
                    -1.86655
                ]
            ],
            [
                [
                    -2.25711,
                    0.0,
                    0.03035
                ],
                [
                    0.00011,
                    -1.70645,
                    0.00024
                ],
                [
                    0.05118,
                    0.0,
                    -1.86655
                ]
            ],
            [
                [
                    -1.5346,
                    0.0,
                    -0.02916
                ],
                [
                    -0.00031,
                    -1.58107,
                    0.00011
                ],
                [
                    -0.02304,
                    0.0,
                    -2.80994
                ]
            ],
            [
                [
                    -1.53478,
                    0.0,
                    0.02934
                ],
                [
                    0.00031,
                    -1.58107,
                    0.00011
                ],
                [
                    0.02304,
                    0.0,
                    -2.80994
                ]
            ],
            [
                [
                    -1.53478,
                    0.0,
                    -0.02934
                ],
                [
                    0.00031,
                    -1.58107,
                    -0.00011
                ],
                [
                    -0.02314,
                    0.0,
                    -2.80944
                ]
            ],
            [
                [
                    -1.5346,
                    0.0,
                    0.02916
                ],
                [
                    -0.00031,
                    -1.58107,
                    -0.00011
                ],
                [
                    0.02314,
                    0.0,
                    -2.80944
                ]
            ]
        ]
    },
    "band_gap": 0.9938000000000001,
    "is_direct": true,
    "formula": "Cd2GeO4"
}