{
    "mp_id": "mp-3834",
    "nelements": 3,
    "nsites": 5,
    "elements": [
        "Ba",
        "O",
        "Zr"
    ],
    "structure": {
        "@module": "pymatgen.core.structure",
        "@class": "Structure",
        "charge": null,
        "lattice": {
            "matrix": [
                [
                    4.2164998,
                    0.0,
                    0.0
                ],
                [
                    0.0,
                    4.2164998,
                    0.0
                ],
                [
                    0.0,
                    0.0,
                    4.2164998
                ]
            ],
            "a": 4.2164998,
            "b": 4.2164998,
            "c": 4.2164998,
            "alpha": 90.0,
            "beta": 90.0,
            "gamma": 90.0,
            "volume": 74.96460417480216
        },
        "sites": [
            {
                "species": [
                    {
                        "element": "Ba",
                        "occu": 1
                    }
                ],
                "abc": [
                    0.0,
                    0.0,
                    0.0
                ],
                "xyz": [
                    0.0,
                    0.0,
                    0.0
                ],
                "label": "Ba",
                "properties": {}
            },
            {
                "species": [
                    {
                        "element": "Zr",
                        "occu": 1
                    }
                ],
                "abc": [
                    0.5,
                    0.5,
                    0.5
                ],
                "xyz": [
                    2.1082499,
                    2.1082499,
                    2.1082499
                ],
                "label": "Zr",
                "properties": {}
            },
            {
                "species": [
                    {
                        "element": "O",
                        "occu": 1
                    }
                ],
                "abc": [
                    0.5,
                    0.0,
                    0.5
                ],
                "xyz": [
                    2.1082499,
                    0.0,
                    2.1082499
                ],
                "label": "O",
                "properties": {}
            },
            {
                "species": [
                    {
                        "element": "O",
                        "occu": 1
                    }
                ],
                "abc": [
                    0.5,
                    0.5,
                    0.0
                ],
                "xyz": [
                    2.1082499,
                    2.1082499,
                    0.0
                ],
                "label": "O",
                "properties": {}
            },
            {
                "species": [
                    {
                        "element": "O",
                        "occu": 1
                    }
                ],
                "abc": [
                    0.0,
                    0.5,
                    0.5
                ],
                "xyz": [
                    0.0,
                    2.1082499,
                    2.1082499
                ],
                "label": "O",
                "properties": {}
            }
        ]
    },
    "spacegroup": {
        "source": "spglib",
        "symbol": "Pm-3m",
        "number": 221,
        "point_group": "m-3m",
        "crystal_system": "cubic",
        "hall": "-P 4 2 3"
    },
    "dielectric": {
        "epsilon_ionic": [
            [
                35.09025909,
                0.0,
                -0.0
            ],
            [
                0.0,
                35.0903661,
                0.0
            ],
            [
                -0.0,
                0.0,
                35.09026272
            ]
        ],
        "epsilon_ionic_avg": 35.09029597,
        "epsilon_ionic_eig": [
            35.09025909,
            35.0903661,
            35.09026272
        ],
        "epsilon_electronic": [
            [
                4.66577063,
                0.0,
                -0.0
            ],
            [
                0.0,
                4.66577063,
                -0.0
            ],
            [
                -0.0,
                0.0,
                4.66577063
            ]
        ],
        "epsilon_electronic_avg": 4.66577063,
        "epsilon_electronic_eig": [
            4.66577063,
            4.66577063,
            4.66577063
        ]
    },
    "phonon": {
        "lowest_freq": -0.011094329487238328,
        "frequency": [
            -0.011094329487238328,
            -0.011094329487238328,
            -0.011094329487238328,
            2.9778275854870166,
            2.9778275854870166,
            2.9778275854870166,
            5.640662611187245,
            5.640662611187245,
            5.640662611187245,
            6.854974163588278,
            6.854974163588278,
            6.854974163588278,
            16.19630119130564,
            16.19630119130564,
            16.19630119130564
        ]
    },
    "born_effective_charge": {
        "avg_abs_trace": 3.3622546666666664,
        "tensors": [
            [
                [
                    2.72913,
                    -0.0,
                    -0.0
                ],
                [
                    0.0,
                    2.72912,
                    -0.0
                ],
                [
                    0.0,
                    -0.0,
                    2.72913
                ]
            ],
            [
                [
                    5.6765,
                    0.0,
                    0.0
                ],
                [
                    0.0,
                    5.67653,
                    0.0
                ],
                [
                    0.0,
                    -0.0,
                    5.6765
                ]
            ],
            [
                [
                    -1.98243,
                    0.0,
                    0.0
                ],
                [
                    -0.0,
                    -4.44077,
                    0.0
                ],
                [
                    -0.0,
                    0.0,
                    -1.98243
                ]
            ],
            [
                [
                    -1.98243,
                    -0.0,
                    0.0
                ],
                [
                    0.0,
                    -1.98244,
                    0.0
                ],
                [
                    0.0,
                    -0.0,
                    -4.44077
                ]
            ],
            [
                [
                    -4.44077,
                    -0.0,
                    0.0
                ],
                [
                    0.0,
                    -1.98244,
                    0.0
                ],
                [
                    0.0,
                    0.0,
                    -1.98243
                ]
            ]
        ]
    },
    "band_gap": 3.5080000000000005,
    "is_direct": false,
    "formula": "BaZrO3"
}