{
    "mp_id": "mp-30120",
    "nelements": 3,
    "nsites": 16,
    "elements": [
        "Bi",
        "K",
        "O"
    ],
    "structure": {
        "@module": "pymatgen.core.structure",
        "@class": "Structure",
        "charge": null,
        "lattice": {
            "matrix": [
                [
                    6.49903633,
                    -0.00072846,
                    0.00052755
                ],
                [
                    -1.82070379,
                    6.40095672,
                    0.00034807
                ],
                [
                    -1.0619318,
                    -1.82412629,
                    7.46496816
                ]
            ],
            "a": 6.499036392237148,
            "b": 6.65486358563316,
            "c": 7.757634014281299,
            "alpha": 100.87496820320416,
            "beta": 97.861801282001,
            "gamma": 105.88442378126717,
            "volume": 310.5426145734918
        },
        "sites": [
            {
                "species": [
                    {
                        "element": "K",
                        "occu": 1
                    }
                ],
                "abc": [
                    0.66680186,
                    0.78045694,
                    0.98325928
                ],
                "xyz": [
                    1.868434307384667,
                    3.20159625374623,
                    7.340622643192873
                ],
                "label": "K",
                "properties": {}
            },
            {
                "species": [
                    {
                        "element": "K",
                        "occu": 1
                    }
                ],
                "abc": [
                    0.83735827,
                    0.23345601,
                    0.83376543
                ],
                "xyz": [
                    4.131565551892997,
                    -0.027161606527631887,
                    6.224555395247448
                ],
                "label": "K",
                "properties": {}
            },
            {
                "species": [
                    {
                        "element": "K",
                        "occu": 1
                    }
                ],
                "abc": [
                    0.64230998,
                    0.77180782,
                    0.47026624
                ],
                "xyz": [
                    2.269771797393503,
                    4.08201554316607,
                    3.5111300021007747
                ],
                "label": "K",
                "properties": {}
            },
            {
                "species": [
                    {
                        "element": "K",
                        "occu": 1
                    }
                ],
                "abc": [
                    0.35769002,
                    0.22819218,
                    0.52973376
                ],
                "xyz": [
                    1.3466289426064963,
                    0.4940864268339299,
                    3.9547137778992254
                ],
                "label": "K",
                "properties": {}
            },
            {
                "species": [
                    {
                        "element": "K",
                        "occu": 1
                    }
                ],
                "abc": [
                    0.33319814,
                    0.21954306,
                    0.01674072
                ],
                "xyz": [
                    1.7479664326153328,
                    1.3745057162537702,
                    0.1252211368071264
                ],
                "label": "K",
                "properties": {}
            },
            {
                "species": [
                    {
                        "element": "K",
                        "occu": 1
                    }
                ],
                "abc": [
                    0.16264173,
                    0.76654399,
                    0.16623457
                ],
                "xyz": [
                    -0.5151648118929969,
                    4.603263576527632,
                    1.241288384752552
                ],
                "label": "K",
                "properties": {}
            },
            {
                "species": [
                    {
                        "element": "Bi",
                        "occu": 1
                    }
                ],
                "abc": [
                    0.85059072,
                    0.30277724,
                    0.31352958
                ],
                "xyz": [
                    4.643805291604474,
                    1.3655268381545036,
                    2.3410424487264354
                ],
                "label": "Bi",
                "properties": {}
            },
            {
                "species": [
                    {
                        "element": "Bi",
                        "occu": 1
                    }
                ],
                "abc": [
                    0.14940928,
                    0.69722276,
                    0.68647042
                ],
                "xyz": [
                    -1.0274045516044743,
                    3.210575131845497,
                    5.124801331273565
                ],
                "label": "Bi",
                "properties": {}
            },
            {
                "species": [
                    {
                        "element": "O",
                        "occu": 1
                    }
                ],
                "abc": [
                    0.97520118,
                    0.8941563,
                    0.77523037
                ],
                "xyz": [
                    3.886632351387726,
                    4.308627283440326,
                    5.787895725080869
                ],
                "label": "O",
                "properties": {}
            },
            {
                "species": [
                    {
                        "element": "O",
                        "occu": 1
                    }
                ],
                "abc": [
                    0.02479882,
                    0.1058437,
                    0.22476963
                ],
                "xyz": [
                    -0.2702316113877264,
                    0.26747468655967416,
                    1.6779480549191308
                ],
                "label": "O",
                "properties": {}
            },
            {
                "species": [
                    {
                        "element": "O",
                        "occu": 1
                    }
                ],
                "abc": [
                    0.23608138,
                    0.52441822,
                    0.85935748
                ],
                "xyz": [
                    -0.3330878108223825,
                    1.7890297817812149,
                    6.415383305239691
                ],
                "label": "O",
                "properties": {}
            },
            {
                "species": [
                    {
                        "element": "O",
                        "occu": 1
                    }
                ],
                "abc": [
                    0.76391862,
                    0.47558178,
                    0.14064252
                ],
                "xyz": [
                    3.9494885508223825,
                    2.7870721882187857,
                    1.0504604747603086
                ],
                "label": "O",
                "properties": {}
            },
            {
                "species": [
                    {
                        "element": "O",
                        "occu": 1
                    }
                ],
                "abc": [
                    0.44055956,
                    0.94149572,
                    0.72719031
                ],
                "xyz": [
                    0.3768012454551781,
                    4.699665463463911,
                    5.429012634021668
                ],
                "label": "O",
                "properties": {}
            },
            {
                "species": [
                    {
                        "element": "O",
                        "occu": 1
                    }
                ],
                "abc": [
                    0.55944044,
                    0.05850428,
                    0.27280969
                ],
                "xyz": [
                    3.239599494544822,
                    -0.12356349346391093,
                    2.036831145978332
                ],
                "label": "O",
                "properties": {}
            },
            {
                "species": [
                    {
                        "element": "O",
                        "occu": 1
                    }
                ],
                "abc": [
                    0.18318549,
                    0.55285588,
                    0.42775277
                ],
                "xyz": [
                    -0.2703019104020195,
                    2.7583980435981448,
                    3.1934498804532043
                ],
                "label": "O",
                "properties": {}
            },
            {
                "species": [
                    {
                        "element": "O",
                        "occu": 1
                    }
                ],
                "abc": [
                    0.81681451,
                    0.44714412,
                    0.57224723
                ],
                "xyz": [
                    3.8867026504020195,
                    1.8177039264018549,
                    4.272393899546795
                ],
                "label": "O",
                "properties": {}
            }
        ]
    },
    "spacegroup": {
        "source": "spglib",
        "symbol": "P-1",
        "number": 2,
        "point_group": "-1",
        "crystal_system": "triclinic",
        "hall": "-P 1"
    },
    "dielectric": {
        "epsilon_ionic": [
            [
                4.66938989,
                -0.00153088,
                0.29376147
            ],
            [
                -0.00153088,
                4.90086987,
                0.31954882
            ],
            [
                0.29376147,
                0.31954882,
                5.76304071
            ]
        ],
        "epsilon_ionic_avg": 5.111100156666667,
        "epsilon_ionic_eig": [
            5.930431361188559,
            4.570677201718796,
            4.8321919070926445
        ],
        "epsilon_electronic": [
            [
                3.2777972,
                0.07220098,
                0.0947348
            ],
            [
                0.07220558,
                3.32364969,
                0.26817368
            ],
            [
                0.09473358,
                0.26816774,
                3.37979901
            ]
        ],
        "epsilon_electronic_avg": 3.3270819666666687,
        "epsilon_electronic_eig": [
            3.6584036351307985,
            3.24131357133154,
            3.0815286935376673
        ]
    },
    "phonon": {
        "lowest_freq": -0.17148305072325482,
        "frequency": [
            -0.17148305072325482,
            -0.09486768981173441,
            -0.03458378260015706,
            1.6440659011487337,
            1.9399922551015651,
            2.1628723149152074,
            2.5828063958395178,
            2.7486165568503718,
            2.965810442614162,
            3.0482596821136307,
            3.245711521567582,
            3.302468262098611,
            3.5182577661043117,
            3.586952962816748,
            3.7651249599901955,
            3.956219951344837,
            4.007293349363092,
            4.0189527995103465,
            4.052721609479697,
            4.296897118781042,
            4.365557534333725,
            4.6939066106739755,
            4.750807964491761,
            4.859523374062737,
            5.01531198582012,
            5.051633895853418,
            5.263459483713425,
            5.476303494356816,
            5.679197216632855,
            5.988265388016409,
            6.1768369758058235,
            6.307220323610476,
            7.199616690585874,
            7.886347548943389,
            8.106404073890673,
            8.576056404242221,
            8.89398999695352,
            9.10684656310315,
            10.791971565887646,
            12.282082914942409,
            15.05792924292533,
            15.333295156238158,
            15.963271460875665,
            16.130599184325554,
            17.12838211222316,
            17.29602029709516,
            17.81677580546386,
            18.19144727493996
        ]
    },
    "born_effective_charge": {
        "avg_abs_trace": 1.7016683333333331,
        "tensors": [
            [
                [
                    1.21855,
                    -0.01195,
                    0.08319
                ],
                [
                    -0.06619,
                    1.06441,
                    0.15546
                ],
                [
                    0.13437,
                    -0.04589,
                    1.34554
                ]
            ],
            [
                [
                    1.13482,
                    0.07526,
                    -0.05334
                ],
                [
                    0.16152,
                    1.34107,
                    0.00595
                ],
                [
                    -0.11188,
                    -0.026,
                    1.23291
                ]
            ],
            [
                [
                    1.3217,
                    -0.07683,
                    -0.02861
                ],
                [
                    -0.0921,
                    1.14744,
                    -0.22851
                ],
                [
                    -0.02136,
                    -0.02383,
                    0.92134
                ]
            ],
            [
                [
                    1.32168,
                    -0.07676,
                    -0.02859
                ],
                [
                    -0.09227,
                    1.1474,
                    -0.22863
                ],
                [
                    -0.02138,
                    -0.02388,
                    0.92124
                ]
            ],
            [
                [
                    1.21861,
                    -0.01194,
                    0.08317
                ],
                [
                    -0.06628,
                    1.0644,
                    0.15544
                ],
                [
                    0.13435,
                    -0.04595,
                    1.34553
                ]
            ],
            [
                [
                    1.13477,
                    0.07519,
                    -0.05344
                ],
                [
                    0.16163,
                    1.34108,
                    0.00607
                ],
                [
                    -0.11194,
                    -0.02593,
                    1.23282
                ]
            ],
            [
                [
                    3.00887,
                    0.27895,
                    0.32998
                ],
                [
                    0.35325,
                    3.21924,
                    0.57999
                ],
                [
                    0.39489,
                    0.63131,
                    3.46438
                ]
            ],
            [
                [
                    3.00878,
                    0.27901,
                    0.32988
                ],
                [
                    0.35339,
                    3.21912,
                    0.58009
                ],
                [
                    0.39482,
                    0.63145,
                    3.46434
                ]
            ],
            [
                [
                    -1.90151,
                    0.42376,
                    0.20936
                ],
                [
                    0.38555,
                    -1.64329,
                    -0.30216
                ],
                [
                    0.21814,
                    -0.35629,
                    -1.53878
                ]
            ],
            [
                [
                    -1.90146,
                    0.42387,
                    0.20943
                ],
                [
                    0.38568,
                    -1.64308,
                    -0.30211
                ],
                [
                    0.21827,
                    -0.35655,
                    -1.53859
                ]
            ],
            [
                [
                    -1.44554,
                    0.13895,
                    -0.22138
                ],
                [
                    0.07242,
                    -1.8119,
                    0.25705
                ],
                [
                    -0.30402,
                    0.44093,
                    -1.91705
                ]
            ],
            [
                [
                    -1.44549,
                    0.13918,
                    -0.22152
                ],
                [
                    0.0723,
                    -1.81208,
                    0.25716
                ],
                [
                    -0.30372,
                    0.44085,
                    -1.91707
                ]
            ],
            [
                [
                    -1.88329,
                    -0.52979,
                    -0.16263
                ],
                [
                    -0.45772,
                    -1.8826,
                    -0.15791
                ],
                [
                    -0.1112,
                    -0.15487,
                    -1.45649
                ]
            ],
            [
                [
                    -1.88326,
                    -0.52975,
                    -0.16246
                ],
                [
                    -0.45772,
                    -1.88285,
                    -0.15759
                ],
                [
                    -0.11112,
                    -0.15499,
                    -1.4563
                ]
            ],
            [
                [
                    -1.45364,
                    -0.29862,
                    -0.15654
                ],
                [
                    -0.35669,
                    -1.43412,
                    -0.3101
                ],
                [
                    -0.19901,
                    -0.46527,
                    -2.05188
                ]
            ],
            [
                [
                    -1.45359,
                    -0.29852,
                    -0.15649
                ],
                [
                    -0.35675,
                    -1.43425,
                    -0.31021
                ],
                [
                    -0.19921,
                    -0.46507,
                    -2.05193
                ]
            ]
        ]
    },
    "band_gap": 1.2368,
    "is_direct": false,
    "formula": "K3BiO4"
}