{
    "mp_id": "mp-3788",
    "nelements": 3,
    "nsites": 24,
    "elements": [
        "Al",
        "O",
        "Sr"
    ],
    "structure": {
        "@module": "pymatgen.core.structure",
        "@class": "Structure",
        "charge": null,
        "lattice": {
            "matrix": [
                [
                    6.54626429,
                    -4.52503192,
                    -0.00022355
                ],
                [
                    6.54626429,
                    4.52503192,
                    -0.00022355
                ],
                [
                    -1.58184207,
                    0.0,
                    5.31895354
                ]
            ],
            "a": 7.9579827897227,
            "b": 7.9579827897227,
            "c": 5.5491883275935425,
            "alpha": 103.56314479471034,
            "beta": 103.56314479471034,
            "gamma": 69.30746560930012,
            "volume": 315.1134669243812
        },
        "sites": [
            {
                "species": [
                    {
                        "element": "Sr",
                        "occu": 1
                    }
                ],
                "abc": [
                    0.8129664,
                    0.1870336,
                    0.75
                ],
                "xyz": [
                    5.3598827374999995,
                    -2.8323658997749757,
                    3.9889916050000003
                ],
                "label": "Sr",
                "properties": {}
            },
            {
                "species": [
                    {
                        "element": "Sr",
                        "occu": 1
                    }
                ],
                "abc": [
                    0.1870336,
                    0.8129664,
                    0.25
                ],
                "xyz": [
                    6.150803772499999,
                    2.8323658997749757,
                    1.329514835
                ],
                "label": "Sr",
                "properties": {}
            },
            {
                "species": [
                    {
                        "element": "Al",
                        "occu": 1
                    }
                ],
                "abc": [
                    0.32006594,
                    0.43868626,
                    0.74133301
                ],
                "xyz": [
                    3.7943206887212075,
                    0.5367607343606144,
                    3.942946218804045
                ],
                "label": "Al",
                "properties": {}
            },
            {
                "species": [
                    {
                        "element": "Al",
                        "occu": 1
                    }
                ],
                "abc": [
                    0.56131374,
                    0.67993406,
                    0.75866699
                ],
                "xyz": [
                    6.925444786278793,
                    0.5367607343606142,
                    4.0350369911959545
                ],
                "label": "Al",
                "properties": {}
            },
            {
                "species": [
                    {
                        "element": "Al",
                        "occu": 1
                    }
                ],
                "abc": [
                    0.67993406,
                    0.56131374,
                    0.25866699
                ],
                "xyz": [
                    7.716365821278793,
                    -0.5367607343606142,
                    1.3755602211959546
                ],
                "label": "Al",
                "properties": {}
            },
            {
                "species": [
                    {
                        "element": "Al",
                        "occu": 1
                    }
                ],
                "abc": [
                    0.43868626,
                    0.32006594,
                    0.24133301
                ],
                "xyz": [
                    4.585241723721207,
                    -0.5367607343606144,
                    1.2834694488040455
                ],
                "label": "Al",
                "properties": {}
            },
            {
                "species": [
                    {
                        "element": "Al",
                        "occu": 1
                    }
                ],
                "abc": [
                    0.91885521,
                    0.74479368,
                    0.70417783
                ],
                "xyz": [
                    9.77678720344983,
                    -0.7876339792940379,
                    3.7451172529586585
                ],
                "label": "Al",
                "properties": {}
            },
            {
                "species": [
                    {
                        "element": "Al",
                        "occu": 1
                    }
                ],
                "abc": [
                    0.25520632,
                    0.08114479,
                    0.79582217
                ],
                "xyz": [
                    0.9429782715501696,
                    -0.7876339792940377,
                    4.232865957041341
                ],
                "label": "Al",
                "properties": {}
            },
            {
                "species": [
                    {
                        "element": "Al",
                        "occu": 1
                    }
                ],
                "abc": [
                    0.08114479,
                    0.25520632,
                    0.29582217
                ],
                "xyz": [
                    1.7338993065501696,
                    0.7876339792940377,
                    1.5733891870413412
                ],
                "label": "Al",
                "properties": {}
            },
            {
                "species": [
                    {
                        "element": "Al",
                        "occu": 1
                    }
                ],
                "abc": [
                    0.74479368,
                    0.91885521,
                    0.20417783
                ],
                "xyz": [
                    10.56770823844983,
                    0.7876339792940379,
                    1.0856404829586588
                ],
                "label": "Al",
                "properties": {}
            },
            {
                "species": [
                    {
                        "element": "O",
                        "occu": 1
                    }
                ],
                "abc": [
                    0.25447061,
                    0.36471469,
                    0.4074629
                ],
                "xyz": [
                    3.4088086610987336,
                    0.49885798099103384,
                    2.167137815499851
                ],
                "label": "O",
                "properties": {}
            },
            {
                "species": [
                    {
                        "element": "O",
                        "occu": 1
                    }
                ],
                "abc": [
                    0.63528531,
                    0.74552939,
                    0.0925371
                ],
                "xyz": [
                    8.892798883901264,
                    0.4988579809910334,
                    0.491891854500149
                ],
                "label": "O",
                "properties": {}
            },
            {
                "species": [
                    {
                        "element": "O",
                        "occu": 1
                    }
                ],
                "abc": [
                    0.74552939,
                    0.63528531,
                    0.5925371
                ],
                "xyz": [
                    8.101877848901266,
                    -0.4988579809910334,
                    3.151368624500149
                ],
                "label": "O",
                "properties": {}
            },
            {
                "species": [
                    {
                        "element": "O",
                        "occu": 1
                    }
                ],
                "abc": [
                    0.36471469,
                    0.25447061,
                    0.9074629
                ],
                "xyz": [
                    2.617887626098734,
                    -0.49885798099103384,
                    4.826614585499851
                ],
                "label": "O",
                "properties": {}
            },
            {
                "species": [
                    {
                        "element": "O",
                        "occu": 1
                    }
                ],
                "abc": [
                    0.13472464,
                    0.61771701,
                    0.8335749
                ],
                "xyz": [
                    3.607098058387635,
                    2.185555891366451,
                    4.433577956879288
                ],
                "label": "O",
                "properties": {}
            },
            {
                "species": [
                    {
                        "element": "O",
                        "occu": 1
                    }
                ],
                "abc": [
                    0.38228299,
                    0.86527536,
                    0.6664251
                ],
                "xyz": [
                    7.112667416612364,
                    2.185555891366451,
                    3.5444052531207118
                ],
                "label": "O",
                "properties": {}
            },
            {
                "species": [
                    {
                        "element": "O",
                        "occu": 1
                    }
                ],
                "abc": [
                    0.86527536,
                    0.38228299,
                    0.1664251
                ],
                "xyz": [
                    7.9035884516123645,
                    -2.185555891366451,
                    0.8849284831207114
                ],
                "label": "O",
                "properties": {}
            },
            {
                "species": [
                    {
                        "element": "O",
                        "occu": 1
                    }
                ],
                "abc": [
                    0.61771701,
                    0.13472464,
                    0.3335749
                ],
                "xyz": [
                    4.398019093387635,
                    -2.185555891366451,
                    1.7741011868792886
                ],
                "label": "O",
                "properties": {}
            },
            {
                "species": [
                    {
                        "element": "O",
                        "occu": 1
                    }
                ],
                "abc": [
                    0.92086847,
                    0.84315308,
                    0.45336045
                ],
                "xyz": [
                    10.830606646871317,
                    -0.3516646204252485,
                    2.4110088234059908
                ],
                "label": "O",
                "properties": {}
            },
            {
                "species": [
                    {
                        "element": "O",
                        "occu": 1
                    }
                ],
                "abc": [
                    0.15684692,
                    0.07913153,
                    0.04663955
                ],
                "xyz": [
                    1.471000898128682,
                    -0.3516646204252487,
                    0.24802084659400953
                ],
                "label": "O",
                "properties": {}
            },
            {
                "species": [
                    {
                        "element": "O",
                        "occu": 1
                    }
                ],
                "abc": [
                    0.47182209,
                    0.52817791,
                    0.25
                ],
                "xyz": [
                    6.1508037725,
                    0.2550118843777742,
                    1.329514835
                ],
                "label": "O",
                "properties": {}
            },
            {
                "species": [
                    {
                        "element": "O",
                        "occu": 1
                    }
                ],
                "abc": [
                    0.52817791,
                    0.47182209,
                    0.75
                ],
                "xyz": [
                    5.3598827374999995,
                    -0.2550118843777742,
                    3.9889916050000003
                ],
                "label": "O",
                "properties": {}
            },
            {
                "species": [
                    {
                        "element": "O",
                        "occu": 1
                    }
                ],
                "abc": [
                    0.84315308,
                    0.92086847,
                    0.95336045
                ],
                "xyz": [
                    10.039685611871317,
                    0.3516646204252485,
                    5.070485593405991
                ],
                "label": "O",
                "properties": {}
            },
            {
                "species": [
                    {
                        "element": "O",
                        "occu": 1
                    }
                ],
                "abc": [
                    0.07913153,
                    0.15684692,
                    0.54663955
                ],
                "xyz": [
                    0.680079863128682,
                    0.3516646204252487,
                    2.9074976165940094
                ],
                "label": "O",
                "properties": {}
            }
        ]
    },
    "spacegroup": {
        "source": "spglib",
        "symbol": "C2/c",
        "number": 15,
        "point_group": "2/m",
        "crystal_system": "monoclinic",
        "hall": "-C 2yc"
    },
    "dielectric": {
        "epsilon_ionic": [
            [
                4.14792051,
                -0.0,
                0.88493428
            ],
            [
                -0.0,
                3.26069226,
                0.0
            ],
            [
                0.88493428,
                0.0,
                8.56728726
            ]
        ],
        "epsilon_ionic_avg": 5.32530001,
        "epsilon_ionic_eig": [
            3.9773078324740734,
            8.737899937525928,
            3.26069226
        ],
        "epsilon_electronic": [
            [
                2.79065245,
                0.0,
                0.04584799
            ],
            [
                0.0,
                2.79391362,
                0.0
            ],
            [
                0.04584786,
                0.0,
                2.89813753
            ]
        ],
        "epsilon_electronic_avg": 2.827567866666667,
        "epsilon_electronic_eig": [
            2.7737529852687284,
            2.9150369947312718,
            2.79391362
        ]
    },
    "phonon": {
        "lowest_freq": -0.03430797306530026,
        "frequency": [
            -0.03430797306530026,
            -0.025364150173667107,
            -0.021956961862056843,
            2.947879156501748,
            3.2200449806667315,
            3.418505940790945,
            3.554912291571932,
            3.766832473818948,
            4.081349367677492,
            4.407932717206241,
            4.603261494887522,
            4.785306977407705,
            4.969521947879295,
            5.221886259416963,
            5.462505314115571,
            5.52607731704745,
            5.556590891206059,
            6.022609346714489,
            6.323491346928374,
            6.997667745270573,
            7.022825639560926,
            7.294021406105968,
            7.583152338189257,
            7.861040085893384,
            8.508975007135067,
            8.82748151389264,
            8.866325067157097,
            8.94718460812404,
            9.19702196667332,
            9.813856974426278,
            9.97077561853361,
            9.979711147092676,
            10.197616879002059,
            11.0989734888605,
            11.321523101825312,
            11.369312833618451,
            11.524885121229783,
            11.656814196260012,
            12.186871512030462,
            12.505947100588159,
            12.645129766052673,
            12.694048857841803,
            15.292946414115809,
            16.06685930497262,
            16.284670489849297,
            16.555669918087926,
            17.08172276241415,
            17.99177712500687,
            18.319348494529912,
            18.772218227496897,
            19.034999957426248,
            19.23343034922772,
            19.38676048789182,
            19.845147859898773,
            20.023613375496357,
            20.026774314288172,
            20.74296744915841,
            21.435713074331343,
            21.86784506739677,
            22.244938211483948,
            22.345231553545258,
            23.222271588800105,
            24.27466081400437,
            24.276892410298764,
            24.59483081724083,
            25.3290016030281,
            25.496691371260553,
            26.001931678873603,
            27.147163922956487,
            27.205861699631384,
            28.135048604526215,
            28.263683791471102
        ]
    },
    "born_effective_charge": {
        "avg_abs_trace": 2.107794027777778,
        "tensors": [
            [
                [
                    2.1527,
                    2e-05,
                    0.08752
                ],
                [
                    -0.0,
                    2.49845,
                    0.0
                ],
                [
                    0.09313,
                    -1e-05,
                    2.56163
                ]
            ],
            [
                [
                    2.1527,
                    -2e-05,
                    0.08752
                ],
                [
                    -0.0,
                    2.49847,
                    0.0
                ],
                [
                    0.09313,
                    1e-05,
                    2.56163
                ]
            ],
            [
                [
                    2.60221,
                    -0.04143,
                    0.02434
                ],
                [
                    -0.05488,
                    2.47302,
                    0.02406
                ],
                [
                    0.00841,
                    -0.05829,
                    2.76589
                ]
            ],
            [
                [
                    2.6022,
                    0.04143,
                    0.02435
                ],
                [
                    0.05488,
                    2.47302,
                    -0.02406
                ],
                [
                    0.00845,
                    0.05832,
                    2.76582
                ]
            ],
            [
                [
                    2.6022,
                    -0.04143,
                    0.02435
                ],
                [
                    -0.05488,
                    2.47303,
                    0.02406
                ],
                [
                    0.00845,
                    -0.05832,
                    2.76582
                ]
            ],
            [
                [
                    2.60221,
                    0.04143,
                    0.02434
                ],
                [
                    0.05488,
                    2.47303,
                    -0.02406
                ],
                [
                    0.00841,
                    0.05829,
                    2.76589
                ]
            ],
            [
                [
                    2.46664,
                    -0.12576,
                    0.06891
                ],
                [
                    -0.09522,
                    2.454,
                    -0.11476
                ],
                [
                    0.09245,
                    -0.05153,
                    2.60206
                ]
            ],
            [
                [
                    2.46663,
                    0.12575,
                    0.06891
                ],
                [
                    0.09522,
                    2.454,
                    0.11476
                ],
                [
                    0.0925,
                    0.05155,
                    2.60201
                ]
            ],
            [
                [
                    2.46663,
                    -0.12575,
                    0.06891
                ],
                [
                    -0.09523,
                    2.45399,
                    -0.11476
                ],
                [
                    0.0925,
                    -0.05155,
                    2.60201
                ]
            ],
            [
                [
                    2.46664,
                    0.12576,
                    0.06891
                ],
                [
                    0.09523,
                    2.45399,
                    0.11476
                ],
                [
                    0.09245,
                    0.05153,
                    2.60206
                ]
            ],
            [
                [
                    -2.0718,
                    0.30011,
                    -0.13482
                ],
                [
                    0.27473,
                    -1.34526,
                    -0.18839
                ],
                [
                    -0.15439,
                    -0.15926,
                    -1.99048
                ]
            ],
            [
                [
                    -2.07183,
                    -0.30006,
                    -0.13486
                ],
                [
                    -0.27473,
                    -1.34526,
                    0.18839
                ],
                [
                    -0.15437,
                    0.15909,
                    -1.99044
                ]
            ],
            [
                [
                    -2.07183,
                    0.30006,
                    -0.13486
                ],
                [
                    0.27472,
                    -1.34528,
                    -0.18841
                ],
                [
                    -0.15437,
                    -0.15909,
                    -1.99044
                ]
            ],
            [
                [
                    -2.0718,
                    -0.30011,
                    -0.13482
                ],
                [
                    -0.27472,
                    -1.34528,
                    0.18841
                ],
                [
                    -0.15439,
                    0.15926,
                    -1.99048
                ]
            ],
            [
                [
                    -1.31008,
                    0.12823,
                    -0.19525
                ],
                [
                    0.15976,
                    -2.35566,
                    -0.03502
                ],
                [
                    -0.20069,
                    -0.01521,
                    -1.72954
                ]
            ],
            [
                [
                    -1.31006,
                    -0.12824,
                    -0.1953
                ],
                [
                    -0.15976,
                    -2.35566,
                    0.03502
                ],
                [
                    -0.20069,
                    0.0152,
                    -1.72952
                ]
            ],
            [
                [
                    -1.31006,
                    0.12824,
                    -0.1953
                ],
                [
                    0.15975,
                    -2.35563,
                    -0.03498
                ],
                [
                    -0.20069,
                    -0.0152,
                    -1.72952
                ]
            ],
            [
                [
                    -1.31008,
                    -0.12823,
                    -0.19525
                ],
                [
                    -0.15975,
                    -2.35563,
                    0.03498
                ],
                [
                    -0.20069,
                    0.01521,
                    -1.72954
                ]
            ],
            [
                [
                    -1.72442,
                    0.00752,
                    0.23553
                ],
                [
                    0.01856,
                    -1.62866,
                    0.21561
                ],
                [
                    0.22603,
                    0.21386,
                    -2.0572
                ]
            ],
            [
                [
                    -1.72437,
                    -0.00756,
                    0.23551
                ],
                [
                    -0.01856,
                    -1.62866,
                    -0.21561
                ],
                [
                    0.22593,
                    -0.21358,
                    -2.05715
                ]
            ],
            [
                [
                    -2.07783,
                    5e-05,
                    -0.08485
                ],
                [
                    -0.0,
                    -1.69335,
                    0.0
                ],
                [
                    -0.03675,
                    -0.00015,
                    -1.74308
                ]
            ],
            [
                [
                    -2.07783,
                    -5e-05,
                    -0.08485
                ],
                [
                    -0.0,
                    -1.69336,
                    0.0
                ],
                [
                    -0.03675,
                    0.00015,
                    -1.74308
                ]
            ],
            [
                [
                    -1.72442,
                    -0.00752,
                    0.23553
                ],
                [
                    -0.01853,
                    -1.62865,
                    -0.21557
                ],
                [
                    0.22603,
                    -0.21386,
                    -2.0572
                ]
            ],
            [
                [
                    -1.72437,
                    0.00756,
                    0.23551
                ],
                [
                    0.01853,
                    -1.62865,
                    0.21557
                ],
                [
                    0.22593,
                    0.21358,
                    -2.05715
                ]
            ]
        ]
    },
    "band_gap": 3.8061,
    "is_direct": true,
    "formula": "SrAl4O7"
}