{
    "mp_id": "mp-3359",
    "nelements": 3,
    "nsites": 7,
    "elements": [
        "Ba",
        "O",
        "Sn"
    ],
    "structure": {
        "@module": "pymatgen.core.structure",
        "@class": "Structure",
        "charge": null,
        "lattice": {
            "matrix": [
                [
                    -2.08224837,
                    2.08224837,
                    6.63855178
                ],
                [
                    2.08224837,
                    -2.08224837,
                    6.63855178
                ],
                [
                    2.08224837,
                    2.08224837,
                    -6.63855178
                ]
            ],
            "a": 7.26236093047409,
            "b": 7.26236093047409,
            "c": 7.26236093047409,
            "alpha": 146.67688206719095,
            "beta": 146.67688206719095,
            "gamma": 47.84245045053068,
            "volume": 115.13262323981255
        },
        "sites": [
            {
                "species": [
                    {
                        "element": "Ba",
                        "occu": 1
                    }
                ],
                "abc": [
                    0.64569306,
                    0.64569306,
                    0.0
                ],
                "xyz": [
                    0.0,
                    0.0,
                    8.572933625593295
                ],
                "label": "Ba",
                "properties": {}
            },
            {
                "species": [
                    {
                        "element": "Ba",
                        "occu": 1
                    }
                ],
                "abc": [
                    0.35430694,
                    0.35430694,
                    0.0
                ],
                "xyz": [
                    0.0,
                    0.0,
                    4.704169934406707
                ],
                "label": "Ba",
                "properties": {}
            },
            {
                "species": [
                    {
                        "element": "Sn",
                        "occu": 1
                    }
                ],
                "abc": [
                    0.0,
                    0.0,
                    0.0
                ],
                "xyz": [
                    0.0,
                    0.0,
                    0.0
                ],
                "label": "Sn",
                "properties": {}
            },
            {
                "species": [
                    {
                        "element": "O",
                        "occu": 1
                    }
                ],
                "abc": [
                    0.84369847,
                    0.84369847,
                    0.0
                ],
                "xyz": [
                    0.0,
                    0.0,
                    11.201871959603553
                ],
                "label": "O",
                "properties": {}
            },
            {
                "species": [
                    {
                        "element": "O",
                        "occu": 1
                    }
                ],
                "abc": [
                    0.15630153,
                    0.15630153,
                    0.0
                ],
                "xyz": [
                    0.0,
                    0.0,
                    2.075231600396447
                ],
                "label": "O",
                "properties": {}
            },
            {
                "species": [
                    {
                        "element": "O",
                        "occu": 1
                    }
                ],
                "abc": [
                    0.0,
                    0.5,
                    0.5
                ],
                "xyz": [
                    2.08224837,
                    0.0,
                    0.0
                ],
                "label": "O",
                "properties": {}
            },
            {
                "species": [
                    {
                        "element": "O",
                        "occu": 1
                    }
                ],
                "abc": [
                    0.5,
                    0.0,
                    0.5
                ],
                "xyz": [
                    0.0,
                    2.08224837,
                    0.0
                ],
                "label": "O",
                "properties": {}
            }
        ]
    },
    "spacegroup": {
        "source": "spglib",
        "symbol": "I4/mmm",
        "number": 139,
        "point_group": "4/mmm",
        "crystal_system": "tetragonal",
        "hall": "-I 4 2"
    },
    "dielectric": {
        "epsilon_ionic": [
            [
                16.33078566,
                -0.0,
                0.0
            ],
            [
                -0.0,
                16.3307137,
                0.0
            ],
            [
                0.0,
                0.0,
                8.37433972
            ]
        ],
        "epsilon_ionic_avg": 13.678613026666667,
        "epsilon_ionic_eig": [
            16.33078566,
            16.3307137,
            8.37433972
        ],
        "epsilon_electronic": [
            [
                4.28223982,
                0.0,
                0.0
            ],
            [
                0.0,
                4.28223982,
                0.0
            ],
            [
                0.0,
                0.0,
                4.42986826
            ]
        ],
        "epsilon_electronic_avg": 4.3314493,
        "epsilon_electronic_eig": [
            4.28223982,
            4.28223982,
            4.42986826
        ]
    },
    "phonon": {
        "lowest_freq": -0.015830455753606667,
        "frequency": [
            -0.015830455753606667,
            -0.015830455753606667,
            -0.012859572718320115,
            2.680458899287807,
            2.680458899287807,
            3.5323008486701095,
            3.5323008486701095,
            4.663881049379275,
            4.741975258411906,
            6.226870060295127,
            6.226870060295127,
            6.71092765425601,
            6.71092765425601,
            7.5226951341319275,
            7.601012266850601,
            7.601012266850601,
            9.745281925919036,
            15.035496815334565,
            15.678676766589962,
            18.134784630815798,
            18.134784630815798
        ]
    },
    "born_effective_charge": {
        "avg_abs_trace": 2.700679047619048,
        "tensors": [
            [
                [
                    2.54377,
                    -0.0,
                    -3e-05
                ],
                [
                    0.0,
                    2.54377,
                    -0.00011
                ],
                [
                    0.0,
                    0.0,
                    2.88067
                ]
            ],
            [
                [
                    2.54377,
                    -0.0,
                    3e-05
                ],
                [
                    -0.0,
                    2.54377,
                    0.00011
                ],
                [
                    -0.0,
                    -0.0,
                    2.88082
                ]
            ],
            [
                [
                    4.42368,
                    0.0,
                    -0.0
                ],
                [
                    0.0,
                    4.42367,
                    0.0
                ],
                [
                    0.0,
                    0.0,
                    3.5732
                ]
            ],
            [
                [
                    -2.10796,
                    -0.0,
                    -5e-05
                ],
                [
                    -0.0,
                    -2.10796,
                    8e-05
                ],
                [
                    0.0,
                    0.0,
                    -2.83201
                ]
            ],
            [
                [
                    -2.10796,
                    0.0,
                    5e-05
                ],
                [
                    -0.0,
                    -2.10796,
                    -8e-05
                ],
                [
                    -0.0,
                    -0.0,
                    -2.83199
                ]
            ],
            [
                [
                    -3.23826,
                    0.0,
                    -0.0
                ],
                [
                    0.0,
                    -2.05703,
                    -0.0
                ],
                [
                    0.0,
                    0.0,
                    -1.83535
                ]
            ],
            [
                [
                    -2.05704,
                    0.0,
                    -0.0
                ],
                [
                    0.0,
                    -3.23827,
                    0.0
                ],
                [
                    0.0,
                    0.0,
                    -1.83535
                ]
            ]
        ]
    },
    "band_gap": 2.6750999999999996,
    "is_direct": false,
    "formula": "Ba2SnO4"
}