{
    "mp_id": "mp-30158",
    "nelements": 3,
    "nsites": 32,
    "elements": [
        "Ga",
        "O",
        "Sr"
    ],
    "structure": {
        "@module": "pymatgen.core.structure",
        "@class": "Structure",
        "charge": null,
        "lattice": {
            "matrix": [
                [
                    6.7465567,
                    -0.00060306,
                    0.00128078
                ],
                [
                    2.13085865,
                    7.72769466,
                    0.00016789
                ],
                [
                    2.93184148,
                    0.0477973,
                    9.24319438
                ]
            ],
            "a": 6.746556848526044,
            "b": 8.016097764664512,
            "c": 9.697145012435334,
            "alpha": 85.1158915497051,
            "beta": 72.3909050006662,
            "gamma": 74.58929368378601,
            "volume": 481.8799269677226
        },
        "sites": [
            {
                "species": [
                    {
                        "element": "Sr",
                        "occu": 1
                    }
                ],
                "abc": [
                    0.81335934,
                    0.43262592,
                    0.32150038
                ],
                "xyz": [
                    7.351827738550549,
                    3.358077357390981,
                    2.972804873525058
                ],
                "label": "Sr",
                "properties": {}
            },
            {
                "species": [
                    {
                        "element": "Sr",
                        "occu": 1
                    }
                ],
                "abc": [
                    0.18664066,
                    0.56737408,
                    0.67849962
                ],
                "xyz": [
                    4.457429091449452,
                    4.41681154260902,
                    6.271838176474941
                ],
                "label": "Sr",
                "properties": {}
            },
            {
                "species": [
                    {
                        "element": "Sr",
                        "occu": 1
                    }
                ],
                "abc": [
                    0.68704609,
                    0.78522654,
                    0.03868888
                ],
                "xyz": [
                    6.421831829865617,
                    6.069425834037266,
                    0.35862062475944523
                ],
                "label": "Sr",
                "properties": {}
            },
            {
                "species": [
                    {
                        "element": "Sr",
                        "occu": 1
                    }
                ],
                "abc": [
                    0.31295391,
                    0.21477346,
                    0.96131112
                ],
                "xyz": [
                    5.3874250001343835,
                    1.705463065962735,
                    8.886022425240554
                ],
                "label": "Sr",
                "properties": {}
            },
            {
                "species": [
                    {
                        "element": "Sr",
                        "occu": 1
                    }
                ],
                "abc": [
                    0.06047063,
                    0.05031387,
                    0.68890702
                ],
                "xyz": [
                    2.5349464561833863,
                    0.4217016526118524,
                    6.367787392375674
                ],
                "label": "Sr",
                "properties": {}
            },
            {
                "species": [
                    {
                        "element": "Sr",
                        "occu": 1
                    }
                ],
                "abc": [
                    0.93952937,
                    0.94968613,
                    0.31109298
                ],
                "xyz": [
                    9.274310373816613,
                    7.353187247388147,
                    2.876855657624327
                ],
                "label": "Sr",
                "properties": {}
            },
            {
                "species": [
                    {
                        "element": "Ga",
                        "occu": 1
                    }
                ],
                "abc": [
                    0.25106964,
                    0.74984571,
                    0.94423452
                ],
                "xyz": [
                    6.06001671181137,
                    5.839559139556606,
                    8.728190665235768
                ],
                "label": "Ga",
                "properties": {}
            },
            {
                "species": [
                    {
                        "element": "Ga",
                        "occu": 1
                    }
                ],
                "abc": [
                    0.74893036,
                    0.25015429,
                    0.05576548
                ],
                "xyz": [
                    5.749240118188632,
                    1.9353297604433939,
                    0.5164523847642313
                ],
                "label": "Ga",
                "properties": {}
            },
            {
                "species": [
                    {
                        "element": "Ga",
                        "occu": 1
                    }
                ],
                "abc": [
                    0.6642929,
                    0.44924094,
                    0.76626898
                ],
                "xyz": [
                    7.68553783859185,
                    3.50782179293286,
                    7.08369936562621
                ],
                "label": "Ga",
                "properties": {}
            },
            {
                "species": [
                    {
                        "element": "Ga",
                        "occu": 1
                    }
                ],
                "abc": [
                    0.3357071,
                    0.55075906,
                    0.23373102
                ],
                "xyz": [
                    4.123718991408149,
                    4.267067107067139,
                    2.1609436843737893
                ],
                "label": "Ga",
                "properties": {}
            },
            {
                "species": [
                    {
                        "element": "Ga",
                        "occu": 1
                    }
                ],
                "abc": [
                    0.38947344,
                    0.16994941,
                    0.30063106
                ],
                "xyz": [
                    3.8711454283493136,
                    1.3274516252385622,
                    2.779318686844371
                ],
                "label": "Ga",
                "properties": {}
            },
            {
                "species": [
                    {
                        "element": "Ga",
                        "occu": 1
                    }
                ],
                "abc": [
                    0.61052656,
                    0.83005059,
                    0.69936894
                ],
                "xyz": [
                    7.938111401650688,
                    6.447437274761438,
                    6.46532436315563
                ],
                "label": "Ga",
                "properties": {}
            },
            {
                "species": [
                    {
                        "element": "Ga",
                        "occu": 1
                    }
                ],
                "abc": [
                    0.56021063,
                    0.19582524,
                    0.58114551
                ],
                "xyz": [
                    5.900595197913803,
                    1.5407170071038137,
                    5.372391295664469
                ],
                "label": "Ga",
                "properties": {}
            },
            {
                "species": [
                    {
                        "element": "Ga",
                        "occu": 1
                    }
                ],
                "abc": [
                    0.43978937,
                    0.80417476,
                    0.41885449
                ],
                "xyz": [
                    5.908661632086199,
                    6.234171892896186,
                    3.8722517543355317
                ],
                "label": "Ga",
                "properties": {}
            },
            {
                "species": [
                    {
                        "element": "O",
                        "occu": 1
                    }
                ],
                "abc": [
                    0.59056736,
                    0.19939881,
                    0.38423472
                ],
                "xyz": [
                    5.535702148649704,
                    1.558902353877489,
                    3.5523460684344252
                ],
                "label": "O",
                "properties": {}
            },
            {
                "species": [
                    {
                        "element": "O",
                        "occu": 1
                    }
                ],
                "abc": [
                    0.40943264,
                    0.80060119,
                    0.61576528
                ],
                "xyz": [
                    6.273554681350296,
                    6.215986546122511,
                    5.692296981565574
                ],
                "label": "O",
                "properties": {}
            },
            {
                "species": [
                    {
                        "element": "O",
                        "occu": 1
                    }
                ],
                "abc": [
                    0.78355537,
                    0.25721695,
                    0.85963534
                ],
                "xyz": [
                    8.3547082416145,
                    2.028309768311637,
                    7.946823289737913
                ],
                "label": "O",
                "properties": {}
            },
            {
                "species": [
                    {
                        "element": "O",
                        "occu": 1
                    }
                ],
                "abc": [
                    0.21644463,
                    0.74278305,
                    0.14036466
                ],
                "xyz": [
                    3.4545485883855003,
                    5.746579131688363,
                    1.2978197602620867
                ],
                "label": "O",
                "properties": {}
            },
            {
                "species": [
                    {
                        "element": "O",
                        "occu": 1
                    }
                ],
                "abc": [
                    0.56245112,
                    0.1009641,
                    0.11379689
                ],
                "xyz": [
                    4.343383040279966,
                    0.7853197287396758,
                    1.0525841011177008
                ],
                "label": "O",
                "properties": {}
            },
            {
                "species": [
                    {
                        "element": "O",
                        "occu": 1
                    }
                ],
                "abc": [
                    0.43754888,
                    0.8990359,
                    0.88620311
                ],
                "xyz": [
                    7.465873789720034,
                    6.9895691712603245,
                    8.1920589488823
                ],
                "label": "O",
                "properties": {}
            },
            {
                "species": [
                    {
                        "element": "O",
                        "occu": 1
                    }
                ],
                "abc": [
                    0.6967169,
                    0.36827306,
                    0.58548483
                ],
                "xyz": [
                    7.201726615665947,
                    2.8734661911551043,
                    5.41270426066648
                ],
                "label": "O",
                "properties": {}
            },
            {
                "species": [
                    {
                        "element": "O",
                        "occu": 1
                    }
                ],
                "abc": [
                    0.3032831,
                    0.63172694,
                    0.41451517
                ],
                "xyz": [
                    4.607530214334052,
                    4.901422708844895,
                    3.831938789333519
                ],
                "label": "O",
                "properties": {}
            },
            {
                "species": [
                    {
                        "element": "O",
                        "occu": 1
                    }
                ],
                "abc": [
                    0.23995338,
                    0.01411342,
                    0.40008144
                ],
                "xyz": [
                    2.8219081477848604,
                    0.12804230669510638,
                    3.6983402147424274
                ],
                "label": "O",
                "properties": {}
            },
            {
                "species": [
                    {
                        "element": "O",
                        "occu": 1
                    }
                ],
                "abc": [
                    0.76004662,
                    0.98588658,
                    0.59991856
                ],
                "xyz": [
                    8.98734868221514,
                    7.646846593304892,
                    5.546302835257572
                ],
                "label": "O",
                "properties": {}
            },
            {
                "species": [
                    {
                        "element": "O",
                        "occu": 1
                    }
                ],
                "abc": [
                    0.70980414,
                    0.75782705,
                    0.29555632
                ],
                "xyz": [
                    7.270080479753375,
                    5.86995478709782,
                    2.7329208505273352
                ],
                "label": "O",
                "properties": {}
            },
            {
                "species": [
                    {
                        "element": "O",
                        "occu": 1
                    }
                ],
                "abc": [
                    0.29019586,
                    0.24217295,
                    0.70444368
                ],
                "xyz": [
                    4.539176350246626,
                    1.9049341129021795,
                    6.511722199472666
                ],
                "label": "O",
                "properties": {}
            },
            {
                "species": [
                    {
                        "element": "O",
                        "occu": 1
                    }
                ],
                "abc": [
                    0.98004297,
                    0.18368826,
                    0.12432748
                ],
                "xyz": [
                    7.367837646233718,
                    1.4248382790530074,
                    1.1504691232726505
                ],
                "label": "O",
                "properties": {}
            },
            {
                "species": [
                    {
                        "element": "O",
                        "occu": 1
                    }
                ],
                "abc": [
                    0.01995703,
                    0.81631174,
                    0.87567252
                ],
                "xyz": [
                    4.441419183766282,
                    6.350050620946993,
                    8.094173926727349
                ],
                "label": "O",
                "properties": {}
            },
            {
                "species": [
                    {
                        "element": "O",
                        "occu": 1
                    }
                ],
                "abc": [
                    0.37541361,
                    0.5206969,
                    0.87265906
                ],
                "xyz": [
                    6.200778729215681,
                    4.065271003565446,
                    8.066725561094039
                ],
                "label": "O",
                "properties": {}
            },
            {
                "species": [
                    {
                        "element": "O",
                        "occu": 1
                    }
                ],
                "abc": [
                    0.62458639,
                    0.4793031,
                    0.12734094
                ],
                "xyz": [
                    5.608478100784319,
                    3.7096178964345548,
                    1.1779174889059607
                ],
                "label": "O",
                "properties": {}
            },
            {
                "species": [
                    {
                        "element": "O",
                        "occu": 1
                    }
                ],
                "abc": [
                    0.79580617,
                    0.62781424,
                    0.73820257
                ],
                "xyz": [
                    8.871027767380617,
                    4.88636092075014,
                    6.824474502684723
                ],
                "label": "O",
                "properties": {}
            },
            {
                "species": [
                    {
                        "element": "O",
                        "occu": 1
                    }
                ],
                "abc": [
                    0.20419383,
                    0.37218576,
                    0.26179743
                ],
                "xyz": [
                    2.9382290626193814,
                    2.8885279792498606,
                    2.4201685473152774
                ],
                "label": "O",
                "properties": {}
            }
        ]
    },
    "spacegroup": {
        "source": "spglib",
        "symbol": "P-1",
        "number": 2,
        "point_group": "-1",
        "crystal_system": "triclinic",
        "hall": "-P 1"
    },
    "dielectric": {
        "epsilon_ionic": [
            [
                7.08966936,
                -0.30192013,
                0.17765383
            ],
            [
                -0.30192013,
                6.66150872,
                0.46525358
            ],
            [
                0.17765383,
                0.46525358,
                5.51390822
            ]
        ],
        "epsilon_ionic_avg": 6.4216954333333325,
        "epsilon_ionic_eig": [
            5.307812195083757,
            7.247921739185025,
            6.709352365731213
        ],
        "epsilon_electronic": [
            [
                3.32442341,
                0.00884529,
                0.01815266
            ],
            [
                0.00884426,
                3.37951507,
                -0.01851701
            ],
            [
                0.01817863,
                -0.01851525,
                3.37704072
            ]
        ],
        "epsilon_electronic_avg": 3.3603263999999995,
        "epsilon_electronic_eig": [
            3.3155478795709685,
            3.3680347268341264,
            3.397396593594903
        ]
    },
    "phonon": {
        "lowest_freq": -0.06023192073917892,
        "frequency": [
            -0.06023192073917892,
            -0.056807651261241404,
            -0.044598050290400884,
            1.7857060358495402,
            2.203707220106631,
            2.296593611785399,
            2.3377499266982324,
            2.482576804294142,
            2.5589785777429266,
            2.5976026457192147,
            2.7130143094777144,
            2.922674098391686,
            3.0738093438713348,
            3.307284441158159,
            3.394772076447528,
            3.4661059560151624,
            3.4764839471321984,
            3.5984948585674577,
            3.6578228716101258,
            3.6842904812476127,
            3.7842279920918243,
            3.813185082582945,
            4.016554562877152,
            4.063563307746242,
            4.2429992846002,
            4.5939818485601025,
            4.769694013133979,
            4.852651462828626,
            5.058119698523809,
            5.1043602944235715,
            5.118237355532779,
            5.300838093682362,
            5.433341638979431,
            5.661625259574297,
            5.718809270626026,
            5.76091444433233,
            5.864462966260481,
            6.218108265957158,
            6.357368901148362,
            6.43811691839194,
            6.646291145202305,
            6.654762540300447,
            6.67540466849401,
            6.916889358807557,
            7.043984839515765,
            7.327808671109774,
            7.502937927975739,
            7.532952858510308,
            7.902448260142183,
            7.939721595758463,
            8.058669369434009,
            8.201310287646116,
            8.505458501472784,
            8.604779945176672,
            8.702479308828032,
            8.881284947802815,
            9.11672173445452,
            9.804206053112313,
            9.8249288977285,
            9.862086093884168,
            10.305088123300393,
            11.064363966588845,
            11.308561335759372,
            11.607653295094446,
            13.184312852632031,
            13.263328621165668,
            13.527942176991864,
            13.61304738539184,
            14.316741396031325,
            14.556135028422615,
            14.78403382397727,
            14.958600998237975,
            15.01222099796862,
            15.512478168661977,
            15.523747699885348,
            15.89002099529515,
            16.333394867987263,
            16.579480364744143,
            17.194685672674527,
            17.322439065597273,
            18.03051757377875,
            18.14394732876016,
            18.28010332223685,
            18.36294194512241,
            18.74795420015782,
            18.87590623742108,
            18.971795687163294,
            19.470447759194663,
            19.495786730841914,
            20.27068609733947,
            20.38655255176933,
            20.500413387964898,
            21.599071768050916,
            21.62186285977954,
            21.752771716276897,
            21.76560892897017
        ]
    },
    "born_effective_charge": {
        "avg_abs_trace": 2.1826794791666666,
        "tensors": [
            [
                [
                    2.51775,
                    -0.03912,
                    -0.03126
                ],
                [
                    -0.04209,
                    2.38256,
                    0.05214
                ],
                [
                    -0.03095,
                    0.06485,
                    2.30357
                ]
            ],
            [
                [
                    2.5177,
                    -0.03902,
                    -0.03135
                ],
                [
                    -0.04212,
                    2.38245,
                    0.05219
                ],
                [
                    -0.03093,
                    0.06482,
                    2.30345
                ]
            ],
            [
                [
                    2.42713,
                    0.24609,
                    -0.04376
                ],
                [
                    0.19449,
                    2.2954,
                    0.00513
                ],
                [
                    0.08968,
                    -0.05177,
                    2.56415
                ]
            ],
            [
                [
                    2.42734,
                    0.24624,
                    -0.04383
                ],
                [
                    0.19443,
                    2.29543,
                    0.00516
                ],
                [
                    0.08967,
                    -0.05176,
                    2.56425
                ]
            ],
            [
                [
                    2.67032,
                    -0.15295,
                    -0.17039
                ],
                [
                    -0.11336,
                    2.39564,
                    0.11696
                ],
                [
                    -0.26253,
                    0.13791,
                    2.34228
                ]
            ],
            [
                [
                    2.67036,
                    -0.15287,
                    -0.17054
                ],
                [
                    -0.11334,
                    2.39557,
                    0.11701
                ],
                [
                    -0.26257,
                    0.13802,
                    2.34249
                ]
            ],
            [
                [
                    2.47428,
                    -0.12154,
                    0.21859
                ],
                [
                    -0.04148,
                    2.44033,
                    -0.11111
                ],
                [
                    0.01704,
                    0.04774,
                    2.75598
                ]
            ],
            [
                [
                    2.47485,
                    -0.12163,
                    0.21861
                ],
                [
                    -0.0416,
                    2.44041,
                    -0.11091
                ],
                [
                    0.0168,
                    0.04788,
                    2.75604
                ]
            ],
            [
                [
                    2.31436,
                    -7e-05,
                    0.24384
                ],
                [
                    0.03533,
                    2.84154,
                    0.23534
                ],
                [
                    0.1094,
                    -0.2559,
                    2.56797
                ]
            ],
            [
                [
                    2.3143,
                    -7e-05,
                    0.2443
                ],
                [
                    0.03542,
                    2.84146,
                    0.23532
                ],
                [
                    0.10941,
                    -0.25595,
                    2.56768
                ]
            ],
            [
                [
                    2.42135,
                    0.03051,
                    -0.00457
                ],
                [
                    0.05048,
                    2.68059,
                    -0.4761
                ],
                [
                    0.21349,
                    -0.22534,
                    2.57361
                ]
            ],
            [
                [
                    2.42146,
                    0.03027,
                    -0.00483
                ],
                [
                    0.05044,
                    2.68064,
                    -0.47595
                ],
                [
                    0.21348,
                    -0.2254,
                    2.57388
                ]
            ],
            [
                [
                    2.15346,
                    0.12583,
                    0.02791
                ],
                [
                    -0.01264,
                    2.62482,
                    0.05159
                ],
                [
                    0.14669,
                    0.12277,
                    2.63669
                ]
            ],
            [
                [
                    2.1535,
                    0.12565,
                    0.02786
                ],
                [
                    -0.01269,
                    2.62485,
                    0.05172
                ],
                [
                    0.14675,
                    0.12277,
                    2.63673
                ]
            ],
            [
                [
                    -1.90417,
                    -0.10789,
                    -0.3827
                ],
                [
                    -0.12734,
                    -1.58194,
                    0.04777
                ],
                [
                    -0.47466,
                    -0.02607,
                    -2.34485
                ]
            ],
            [
                [
                    -1.90414,
                    -0.10798,
                    -0.38284
                ],
                [
                    -0.12729,
                    -1.58203,
                    0.04772
                ],
                [
                    -0.47473,
                    -0.02609,
                    -2.34464
                ]
            ],
            [
                [
                    -1.61246,
                    0.45033,
                    -0.17303
                ],
                [
                    0.36504,
                    -1.87259,
                    0.09954
                ],
                [
                    -0.15923,
                    0.19709,
                    -2.43224
                ]
            ],
            [
                [
                    -1.6126,
                    0.45042,
                    -0.17296
                ],
                [
                    0.36501,
                    -1.87241,
                    0.09951
                ],
                [
                    -0.1592,
                    0.19705,
                    -2.43219
                ]
            ],
            [
                [
                    -1.81051,
                    -0.22347,
                    0.02494
                ],
                [
                    -0.23519,
                    -1.94728,
                    -0.03799
                ],
                [
                    0.09028,
                    0.00514,
                    -2.07527
                ]
            ],
            [
                [
                    -1.81035,
                    -0.22321,
                    0.02545
                ],
                [
                    -0.23515,
                    -1.94742,
                    -0.03825
                ],
                [
                    0.09025,
                    0.00484,
                    -2.07556
                ]
            ],
            [
                [
                    -1.6505,
                    -0.37755,
                    -0.26398
                ],
                [
                    -0.37632,
                    -1.87484,
                    -0.30842
                ],
                [
                    -0.29158,
                    -0.21561,
                    -2.30533
                ]
            ],
            [
                [
                    -1.65044,
                    -0.37742,
                    -0.26421
                ],
                [
                    -0.37635,
                    -1.87483,
                    -0.30835
                ],
                [
                    -0.29167,
                    -0.21569,
                    -2.30516
                ]
            ],
            [
                [
                    -1.91214,
                    -0.06027,
                    0.12034
                ],
                [
                    0.00745,
                    -2.18999,
                    0.33613
                ],
                [
                    0.02762,
                    0.30944,
                    -1.71785
                ]
            ],
            [
                [
                    -1.9122,
                    -0.06018,
                    0.1205
                ],
                [
                    0.00732,
                    -2.18995,
                    0.33623
                ],
                [
                    0.02784,
                    0.30936,
                    -1.71787
                ]
            ],
            [
                [
                    -1.90563,
                    -0.15885,
                    0.19073
                ],
                [
                    -0.11654,
                    -1.97548,
                    -0.06635
                ],
                [
                    0.19469,
                    -0.08636,
                    -1.88984
                ]
            ],
            [
                [
                    -1.90543,
                    -0.15883,
                    0.19079
                ],
                [
                    -0.11666,
                    -1.97544,
                    -0.06633
                ],
                [
                    0.19458,
                    -0.08634,
                    -1.88981
                ]
            ],
            [
                [
                    -2.30395,
                    0.15773,
                    0.10221
                ],
                [
                    0.20642,
                    -1.71282,
                    0.13596
                ],
                [
                    0.19563,
                    0.05667,
                    -1.91405
                ]
            ],
            [
                [
                    -2.3039,
                    0.15779,
                    0.1023
                ],
                [
                    0.20632,
                    -1.71276,
                    0.13589
                ],
                [
                    0.19551,
                    0.05667,
                    -1.91406
                ]
            ],
            [
                [
                    -1.73739,
                    0.21424,
                    0.06895
                ],
                [
                    0.19846,
                    -2.27445,
                    -0.24503
                ],
                [
                    0.07817,
                    -0.22759,
                    -1.73819
                ]
            ],
            [
                [
                    -1.73715,
                    0.21435,
                    0.06865
                ],
                [
                    0.19855,
                    -2.27442,
                    -0.24513
                ],
                [
                    0.07801,
                    -0.22765,
                    -1.73813
                ]
            ],
            [
                [
                    -2.14279,
                    0.01675,
                    0.07213
                ],
                [
                    0.00757,
                    -2.23142,
                    0.16429
                ],
                [
                    0.05651,
                    0.14733,
                    -1.32684
                ]
            ],
            [
                [
                    -2.14242,
                    0.01672,
                    0.07213
                ],
                [
                    0.00743,
                    -2.23161,
                    0.16434
                ],
                [
                    0.05654,
                    0.14716,
                    -1.32688
                ]
            ]
        ]
    },
    "band_gap": 2.9419000000000004,
    "is_direct": false,
    "formula": "Sr3Ga4O9"
}