{
    "mp_id": "mp-30980",
    "nelements": 3,
    "nsites": 16,
    "elements": [
        "Na",
        "O",
        "Y"
    ],
    "structure": {
        "@module": "pymatgen.core.structure",
        "@class": "Structure",
        "charge": null,
        "lattice": {
            "matrix": [
                [
                    3.28488418,
                    -6.5538471,
                    0.00026483
                ],
                [
                    3.28488418,
                    6.5538471,
                    0.00026483
                ],
                [
                    -3.20490264,
                    0.0,
                    4.94665547
                ]
            ],
            "a": 7.330987379359455,
            "b": 7.330987379359455,
            "c": 5.894132783604378,
            "alpha": 104.09981521557775,
            "beta": 104.09981521557775,
            "gamma": 126.75860070191483,
            "volume": 213.00054262747437
        },
        "sites": [
            {
                "species": [
                    {
                        "element": "Na",
                        "occu": 1
                    }
                ],
                "abc": [
                    0.1807026,
                    0.8192974,
                    0.75
                ],
                "xyz": [
                    0.8812072,
                    4.18525267805508,
                    3.7102564324999996
                ],
                "label": "Na",
                "properties": {}
            },
            {
                "species": [
                    {
                        "element": "Na",
                        "occu": 1
                    }
                ],
                "abc": [
                    0.94394229,
                    0.05605771,
                    0.75
                ],
                "xyz": [
                    0.8812072,
                    -5.819059779767717,
                    3.7102564324999996
                ],
                "label": "Na",
                "properties": {}
            },
            {
                "species": [
                    {
                        "element": "Na",
                        "occu": 1
                    }
                ],
                "abc": [
                    0.8192974,
                    0.1807026,
                    0.25
                ],
                "xyz": [
                    2.4836585199999996,
                    -4.18525267805508,
                    1.2369286975
                ],
                "label": "Na",
                "properties": {}
            },
            {
                "species": [
                    {
                        "element": "Na",
                        "occu": 1
                    }
                ],
                "abc": [
                    0.05605771,
                    0.94394229,
                    0.25
                ],
                "xyz": [
                    2.4836585199999996,
                    5.819059779767717,
                    1.2369286975
                ],
                "label": "Na",
                "properties": {}
            },
            {
                "species": [
                    {
                        "element": "Y",
                        "occu": 1
                    }
                ],
                "abc": [
                    0.56711326,
                    0.43288674,
                    0.25
                ],
                "xyz": [
                    2.48365852,
                    -0.8797000888450914,
                    1.2369286975
                ],
                "label": "Y",
                "properties": {}
            },
            {
                "species": [
                    {
                        "element": "Y",
                        "occu": 1
                    }
                ],
                "abc": [
                    0.43288674,
                    0.56711326,
                    0.75
                ],
                "xyz": [
                    0.8812072000000004,
                    0.8797000888450914,
                    3.7102564324999996
                ],
                "label": "Y",
                "properties": {}
            },
            {
                "species": [
                    {
                        "element": "Y",
                        "occu": 1
                    }
                ],
                "abc": [
                    0.30702321,
                    0.69297679,
                    0.25
                ],
                "xyz": [
                    2.48365852,
                    2.5294807510176183,
                    1.2369286975
                ],
                "label": "Y",
                "properties": {}
            },
            {
                "species": [
                    {
                        "element": "Y",
                        "occu": 1
                    }
                ],
                "abc": [
                    0.69297679,
                    0.30702321,
                    0.75
                ],
                "xyz": [
                    0.8812072000000004,
                    -2.5294807510176183,
                    3.7102564324999996
                ],
                "label": "Y",
                "properties": {}
            },
            {
                "species": [
                    {
                        "element": "O",
                        "occu": 1
                    }
                ],
                "abc": [
                    0.35507528,
                    0.22834797,
                    0.79157871
                ],
                "xyz": [
                    -0.6204548932776093,
                    -0.8305514131343008,
                    3.9158216637363408
                ],
                "label": "O",
                "properties": {}
            },
            {
                "species": [
                    {
                        "element": "O",
                        "occu": 1
                    }
                ],
                "abc": [
                    0.77165203,
                    0.64492472,
                    0.70842129
                ],
                "xyz": [
                    2.38286929327761,
                    -0.8305514131343017,
                    3.504691201263659
                ],
                "label": "O",
                "properties": {}
            },
            {
                "species": [
                    {
                        "element": "O",
                        "occu": 1
                    }
                ],
                "abc": [
                    0.64492472,
                    0.77165203,
                    0.20842129
                ],
                "xyz": [
                    3.98532061327761,
                    0.8305514131343017,
                    1.0313634662636588
                ],
                "label": "O",
                "properties": {}
            },
            {
                "species": [
                    {
                        "element": "O",
                        "occu": 1
                    }
                ],
                "abc": [
                    0.22834797,
                    0.35507528,
                    0.29157871
                ],
                "xyz": [
                    0.9819964267223906,
                    0.8305514131343008,
                    1.4424939287363412
                ],
                "label": "O",
                "properties": {}
            },
            {
                "species": [
                    {
                        "element": "O",
                        "occu": 1
                    }
                ],
                "abc": [
                    0.0824146,
                    0.45863347,
                    0.79027112
                ],
                "xyz": [
                    -0.7554617530412242,
                    2.465680950114777,
                    3.909342244291404
                ],
                "label": "O",
                "properties": {}
            },
            {
                "species": [
                    {
                        "element": "O",
                        "occu": 1
                    }
                ],
                "abc": [
                    0.45863347,
                    0.0824146,
                    0.29027112
                ],
                "xyz": [
                    0.8469895669587758,
                    -2.465680950114777,
                    1.4360145092914043
                ],
                "label": "O",
                "properties": {}
            },
            {
                "species": [
                    {
                        "element": "O",
                        "occu": 1
                    }
                ],
                "abc": [
                    0.9175854,
                    0.54136653,
                    0.20972888
                ],
                "xyz": [
                    4.1203274730412245,
                    -2.4656809501147765,
                    1.0378428857085955
                ],
                "label": "O",
                "properties": {}
            },
            {
                "species": [
                    {
                        "element": "O",
                        "occu": 1
                    }
                ],
                "abc": [
                    0.54136653,
                    0.9175854,
                    0.70972888
                ],
                "xyz": [
                    2.517876153041225,
                    2.4656809501147765,
                    3.511170620708595
                ],
                "label": "O",
                "properties": {}
            }
        ]
    },
    "spacegroup": {
        "source": "spglib",
        "symbol": "C2/c",
        "number": 15,
        "point_group": "2/m",
        "crystal_system": "monoclinic",
        "hall": "-C 2yc"
    },
    "dielectric": {
        "epsilon_ionic": [
            [
                8.29226323,
                0.0,
                -1.85069954
            ],
            [
                0.0,
                10.77621721,
                -0.0
            ],
            [
                -1.85069954,
                -0.0,
                16.3190851
            ]
        ],
        "epsilon_ionic_avg": 11.795855179999998,
        "epsilon_ionic_eig": [
            7.886109014384637,
            16.72523931561536,
            10.77621721
        ],
        "epsilon_electronic": [
            [
                3.5164787,
                0.0,
                -0.18806779
            ],
            [
                0.0,
                3.75648385,
                0.0
            ],
            [
                -0.18806846,
                0.0,
                3.71824119
            ]
        ],
        "epsilon_electronic_avg": 3.66373458,
        "epsilon_electronic_eig": [
            3.4039433448170398,
            3.8307765451829603,
            3.75648385
        ]
    },
    "phonon": {
        "lowest_freq": -0.06411137382124064,
        "frequency": [
            -0.06411137382124064,
            -0.026405654615372556,
            -0.012764151619773649,
            2.9708283933035062,
            3.120973758438763,
            3.3046885182081853,
            3.429195628975589,
            4.758364307494463,
            4.799068674690229,
            4.930373461988975,
            5.390841300881651,
            5.867038693079293,
            5.869432389660566,
            6.060951203818587,
            6.1616218605763144,
            6.268113141585206,
            6.328809704902029,
            6.920005470920601,
            7.296325429804304,
            7.809566200492111,
            7.826941241760032,
            7.887434055352941,
            7.945631178165388,
            8.103601524529832,
            8.183746712667721,
            8.584385491507435,
            8.839257438743847,
            8.854413332852157,
            8.937124909852548,
            9.825306737044553,
            10.00113615461793,
            10.144526027122245,
            10.368567192080306,
            10.459680619673193,
            10.69197558173889,
            10.838148279905763,
            10.939831800609374,
            11.02032376817207,
            11.579850182210716,
            11.955671311089795,
            12.051009418565895,
            12.3193563640401,
            12.451192434906787,
            12.585599751630301,
            13.444144135192689,
            14.3231656927851,
            16.469575180669704,
            16.47947096514522
        ]
    },
    "born_effective_charge": {
        "avg_abs_trace": 2.3187322916666666,
        "tensors": [
            [
                [
                    1.07958,
                    0.0,
                    0.01106
                ],
                [
                    0.0,
                    0.94257,
                    0.0
                ],
                [
                    0.00896,
                    -0.0,
                    1.09916
                ]
            ],
            [
                [
                    1.09567,
                    -1e-05,
                    0.15043
                ],
                [
                    0.0,
                    0.96507,
                    0.0
                ],
                [
                    0.17286,
                    -0.0,
                    1.08722
                ]
            ],
            [
                [
                    1.07958,
                    -0.0,
                    0.01106
                ],
                [
                    0.0,
                    0.94257,
                    0.0
                ],
                [
                    0.00896,
                    0.0,
                    1.09916
                ]
            ],
            [
                [
                    1.09567,
                    1e-05,
                    0.15043
                ],
                [
                    0.0,
                    0.96507,
                    0.0
                ],
                [
                    0.17286,
                    0.0,
                    1.08722
                ]
            ],
            [
                [
                    3.32493,
                    0.00021,
                    -0.94997
                ],
                [
                    0.0,
                    3.93357,
                    0.0
                ],
                [
                    -0.9292,
                    4e-05,
                    3.61335
                ]
            ],
            [
                [
                    3.32493,
                    -0.00021,
                    -0.94997
                ],
                [
                    0.0,
                    3.93332,
                    0.0
                ],
                [
                    -0.9292,
                    -4e-05,
                    3.61335
                ]
            ],
            [
                [
                    3.29917,
                    -2e-05,
                    0.09491
                ],
                [
                    0.0,
                    3.85393,
                    0.0
                ],
                [
                    0.04428,
                    -4e-05,
                    3.53055
                ]
            ],
            [
                [
                    3.29917,
                    2e-05,
                    0.09491
                ],
                [
                    0.0,
                    3.85421,
                    0.0
                ],
                [
                    0.04428,
                    4e-05,
                    3.53055
                ]
            ],
            [
                [
                    -2.05696,
                    0.00057,
                    0.34068
                ],
                [
                    0.00336,
                    -2.48808,
                    -0.00523
                ],
                [
                    0.30852,
                    0.00728,
                    -2.33365
                ]
            ],
            [
                [
                    -2.05692,
                    -0.00054,
                    0.34091
                ],
                [
                    -0.00336,
                    -2.48808,
                    0.00523
                ],
                [
                    0.30848,
                    -0.00734,
                    -2.33373
                ]
            ],
            [
                [
                    -2.05692,
                    0.00054,
                    0.34091
                ],
                [
                    0.0036,
                    -2.4881,
                    -0.00522
                ],
                [
                    0.30848,
                    0.00734,
                    -2.33373
                ]
            ],
            [
                [
                    -2.05696,
                    -0.00057,
                    0.34068
                ],
                [
                    -0.0036,
                    -2.4881,
                    0.00522
                ],
                [
                    0.30852,
                    -0.00728,
                    -2.33365
                ]
            ],
            [
                [
                    -2.34271,
                    0.99959,
                    0.00597
                ],
                [
                    0.99912,
                    -2.3595,
                    0.01488
                ],
                [
                    0.04307,
                    -0.00958,
                    -2.33141
                ]
            ],
            [
                [
                    -2.34271,
                    -0.99959,
                    0.00597
                ],
                [
                    -0.99912,
                    -2.35948,
                    -0.01487
                ],
                [
                    0.04307,
                    0.00958,
                    -2.33141
                ]
            ],
            [
                [
                    -2.34275,
                    0.99961,
                    0.00602
                ],
                [
                    0.99912,
                    -2.35948,
                    0.01487
                ],
                [
                    0.04304,
                    -0.00969,
                    -2.3315
                ]
            ],
            [
                [
                    -2.34275,
                    -0.99961,
                    0.00602
                ],
                [
                    -0.99912,
                    -2.3595,
                    -0.01488
                ],
                [
                    0.04304,
                    0.00969,
                    -2.3315
                ]
            ]
        ]
    },
    "band_gap": 4.4032,
    "is_direct": true,
    "formula": "NaYO2"
}