{
    "mp_id": "mp-38951",
    "nelements": 3,
    "nsites": 14,
    "elements": [
        "Ga",
        "Mg",
        "O"
    ],
    "structure": {
        "@module": "pymatgen.core.structure",
        "@class": "Structure",
        "charge": null,
        "lattice": {
            "matrix": [
                [
                    -2.91294219,
                    2.95831066,
                    4.12890188
                ],
                [
                    2.91294219,
                    -2.95831066,
                    4.12890188
                ],
                [
                    2.91294219,
                    2.95831066,
                    -4.12890188
                ]
            ],
            "a": 5.855310828471804,
            "b": 5.855310828471804,
            "c": 5.855310828471804,
            "alpha": 120.33221343712269,
            "beta": 119.30603205901907,
            "gamma": 90.31585998173134,
            "volume": 142.32139694307875
        },
        "sites": [
            {
                "species": [
                    {
                        "element": "Mg",
                        "occu": 1
                    }
                ],
                "abc": [
                    0.5,
                    0.5,
                    0.5
                ],
                "xyz": [
                    1.456471095,
                    1.47915533,
                    2.06445094
                ],
                "label": "Mg",
                "properties": {}
            },
            {
                "species": [
                    {
                        "element": "Mg",
                        "occu": 1
                    }
                ],
                "abc": [
                    0.5,
                    0.0,
                    0.0
                ],
                "xyz": [
                    -1.456471095,
                    1.47915533,
                    2.06445094
                ],
                "label": "Mg",
                "properties": {}
            },
            {
                "species": [
                    {
                        "element": "Ga",
                        "occu": 1
                    }
                ],
                "abc": [
                    0.88532292,
                    0.13532292,
                    0.75
                ],
                "xyz": [
                    4.440892098500626e-16,
                    4.43746599,
                    1.1174701175901793
                ],
                "label": "Ga",
                "properties": {}
            },
            {
                "species": [
                    {
                        "element": "Ga",
                        "occu": 1
                    }
                ],
                "abc": [
                    0.11467708,
                    0.86467708,
                    0.25
                ],
                "xyz": [
                    2.91294219,
                    -1.4791553300000002,
                    3.0114317624098206
                ],
                "label": "Ga",
                "properties": {}
            },
            {
                "species": [
                    {
                        "element": "Ga",
                        "occu": 1
                    }
                ],
                "abc": [
                    0.0,
                    0.5,
                    0.5
                ],
                "xyz": [
                    2.91294219,
                    0.0,
                    0.0
                ],
                "label": "Ga",
                "properties": {}
            },
            {
                "species": [
                    {
                        "element": "Ga",
                        "occu": 1
                    }
                ],
                "abc": [
                    0.5,
                    0.5,
                    0.0
                ],
                "xyz": [
                    0.0,
                    0.0,
                    4.12890188
                ],
                "label": "Ga",
                "properties": {}
            },
            {
                "species": [
                    {
                        "element": "O",
                        "occu": 1
                    }
                ],
                "abc": [
                    0.24741197,
                    0.73778745,
                    0.50962452
                ],
                "xyz": [
                    2.91294219,
                    0.05694464022676615,
                    1.9636020986908114
                ],
                "label": "O",
                "properties": {}
            },
            {
                "species": [
                    {
                        "element": "O",
                        "occu": 1
                    }
                ],
                "abc": [
                    0.72816293,
                    0.73778745,
                    0.99037548
                ],
                "xyz": [
                    2.91294219,
                    2.9013660197732336,
                    1.9636020986908118
                ],
                "label": "O",
                "properties": {}
            },
            {
                "species": [
                    {
                        "element": "O",
                        "occu": 1
                    }
                ],
                "abc": [
                    0.25051311,
                    0.26427586,
                    0.51376276
                ],
                "xyz": [
                    1.5366513143802667,
                    1.4791553595831064,
                    0.004237120398275174
                ],
                "label": "O",
                "properties": {}
            },
            {
                "species": [
                    {
                        "element": "O",
                        "occu": 1
                    }
                ],
                "abc": [
                    0.25051311,
                    0.73675035,
                    0.98623724
                ],
                "xyz": [
                    4.2892330364903115,
                    1.47915533,
                    0.0042371616872936
                ],
                "label": "O",
                "properties": {}
            },
            {
                "species": [
                    {
                        "element": "O",
                        "occu": 1
                    }
                ],
                "abc": [
                    0.74948689,
                    0.26324965,
                    0.01376276
                ],
                "xyz": [
                    -1.376290846490311,
                    1.4791553299999998,
                    4.124664718312706
                ],
                "label": "O",
                "properties": {}
            },
            {
                "species": [
                    {
                        "element": "O",
                        "occu": 1
                    }
                ],
                "abc": [
                    0.74948689,
                    0.73572414,
                    0.48623724
                ],
                "xyz": [
                    1.3762908756197332,
                    1.4791553004168934,
                    4.124664759601725
                ],
                "label": "O",
                "properties": {}
            },
            {
                "species": [
                    {
                        "element": "O",
                        "occu": 1
                    }
                ],
                "abc": [
                    0.27183707,
                    0.26221255,
                    0.00962452
                ],
                "xyz": [
                    -1.0408340855860843e-16,
                    0.05694464022676639,
                    2.1652997813091877
                ],
                "label": "O",
                "properties": {}
            },
            {
                "species": [
                    {
                        "element": "O",
                        "occu": 1
                    }
                ],
                "abc": [
                    0.75258803,
                    0.26221255,
                    0.49037548
                ],
                "xyz": [
                    0.0,
                    2.901366019773233,
                    2.1652997813091877
                ],
                "label": "O",
                "properties": {}
            }
        ]
    },
    "spacegroup": {
        "source": "spglib",
        "symbol": "Imma",
        "number": 74,
        "point_group": "mmm",
        "crystal_system": "orthorhombic",
        "hall": "-I 2b 2"
    },
    "dielectric": {
        "epsilon_ionic": [
            [
                7.46799951,
                0.0,
                -0.0
            ],
            [
                0.0,
                6.77932295,
                -0.0
            ],
            [
                -0.0,
                -0.0,
                5.85215935
            ]
        ],
        "epsilon_ionic_avg": 6.69982727,
        "epsilon_ionic_eig": [
            7.46799951,
            6.77932295,
            5.85215935
        ],
        "epsilon_electronic": [
            [
                3.86553876,
                0.0,
                0.0
            ],
            [
                0.0,
                3.84109317,
                0.0
            ],
            [
                0.0,
                -0.0,
                3.86299262
            ]
        ],
        "epsilon_electronic_avg": 3.856541516666667,
        "epsilon_electronic_eig": [
            3.86553876,
            3.84109317,
            3.86299262
        ]
    },
    "phonon": {
        "lowest_freq": -0.06829325356279665,
        "frequency": [
            -0.06829325356279665,
            -0.054673735369511194,
            -0.03662111437932334,
            4.072210590523616,
            4.547725235555628,
            5.384374795890688,
            5.396783231014564,
            5.897167171675236,
            5.941935853246523,
            6.040369849598627,
            6.046610525187,
            6.359327396877835,
            8.03857117892739,
            8.66364352163194,
            9.871714273405303,
            9.871766610871108,
            9.986210764248296,
            10.203297429910846,
            10.343283077025452,
            11.041155643231958,
            11.104364145307482,
            11.7102601940562,
            12.297570197117068,
            12.552234528960177,
            12.728884874140139,
            12.797958250286118,
            13.390111509653542,
            13.391877739794108,
            13.544670369985528,
            14.277576150069118,
            14.937675894117085,
            14.980172299708942,
            15.565040236311903,
            15.81703507609769,
            16.293674894041345,
            16.814595988455054,
            16.956572859197518,
            17.511385719713285,
            18.037899906406157,
            18.499862238785514,
            20.813315697429722,
            21.169627909458264
        ]
    },
    "born_effective_charge": {
        "avg_abs_trace": 2.3198733333333332,
        "tensors": [
            [
                [
                    1.92805,
                    -0.0,
                    -0.12492
                ],
                [
                    -0.0,
                    2.17102,
                    0.0
                ],
                [
                    -0.17286,
                    0.0,
                    2.03541
                ]
            ],
            [
                [
                    1.92805,
                    -0.0,
                    0.12492
                ],
                [
                    -0.0,
                    2.17102,
                    0.0
                ],
                [
                    0.17286,
                    0.0,
                    2.03541
                ]
            ],
            [
                [
                    3.17246,
                    0.0,
                    -1e-05
                ],
                [
                    -0.0,
                    2.61699,
                    -4e-05
                ],
                [
                    0.0,
                    0.0,
                    2.93374
                ]
            ],
            [
                [
                    3.17246,
                    -0.0,
                    1e-05
                ],
                [
                    -0.0,
                    2.61699,
                    4e-05
                ],
                [
                    -0.0,
                    0.0,
                    2.93362
                ]
            ],
            [
                [
                    3.01526,
                    -0.0,
                    -0.0
                ],
                [
                    -0.0,
                    3.33882,
                    -0.32681
                ],
                [
                    -0.0,
                    -0.31087,
                    3.14699
                ]
            ],
            [
                [
                    3.01526,
                    -0.0,
                    -0.0
                ],
                [
                    -0.0,
                    3.33882,
                    0.32681
                ],
                [
                    -0.0,
                    0.31087,
                    3.14699
                ]
            ],
            [
                [
                    -1.58388,
                    1e-05,
                    1e-05
                ],
                [
                    0.0,
                    -2.0821,
                    0.35009
                ],
                [
                    -0.0,
                    0.38173,
                    -2.21495
                ]
            ],
            [
                [
                    -1.58388,
                    -1e-05,
                    1e-05
                ],
                [
                    0.0,
                    -2.08207,
                    -0.35007
                ],
                [
                    0.0,
                    -0.38173,
                    -2.21495
                ]
            ],
            [
                [
                    -2.474,
                    -0.0,
                    -0.40984
                ],
                [
                    -2e-05,
                    -1.98133,
                    2e-05
                ],
                [
                    -0.38372,
                    0.0,
                    -1.8431
                ]
            ],
            [
                [
                    -2.47399,
                    -0.0,
                    0.40986
                ],
                [
                    2e-05,
                    -1.98133,
                    2e-05
                ],
                [
                    0.38372,
                    0.0,
                    -1.8431
                ]
            ],
            [
                [
                    -2.474,
                    0.0,
                    0.40984
                ],
                [
                    -2e-05,
                    -1.98133,
                    -2e-05
                ],
                [
                    0.38376,
                    0.0,
                    -1.84309
                ]
            ],
            [
                [
                    -2.47399,
                    -0.0,
                    -0.40986
                ],
                [
                    2e-05,
                    -1.98133,
                    -2e-05
                ],
                [
                    -0.38376,
                    0.0,
                    -1.84309
                ]
            ],
            [
                [
                    -1.58388,
                    1e-05,
                    -1e-05
                ],
                [
                    -0.0,
                    -2.0821,
                    -0.35009
                ],
                [
                    0.0,
                    -0.38174,
                    -2.21494
                ]
            ],
            [
                [
                    -1.58388,
                    -1e-05,
                    -1e-05
                ],
                [
                    -0.0,
                    -2.08207,
                    0.35007
                ],
                [
                    -0.0,
                    0.38174,
                    -2.21494
                ]
            ]
        ]
    },
    "band_gap": 2.6438,
    "is_direct": false,
    "formula": "Mg(GaO2)2"
}