{
    "mp_id": "mp-30300",
    "nelements": 3,
    "nsites": 17,
    "elements": [
        "As",
        "Cs",
        "O"
    ],
    "structure": {
        "@module": "pymatgen.core.structure",
        "@class": "Structure",
        "charge": null,
        "lattice": {
            "matrix": [
                [
                    8.46405332,
                    0.0,
                    0.0
                ],
                [
                    -4.23202666,
                    7.33008504,
                    0.0
                ],
                [
                    0.0,
                    0.0,
                    6.07506349
                ]
            ],
            "a": 8.46405332,
            "b": 8.464053186540275,
            "c": 6.07506349,
            "alpha": 90.0,
            "beta": 90.0,
            "gamma": 120.00000052159551,
            "volume": 376.91049006979006
        },
        "sites": [
            {
                "species": [
                    {
                        "element": "Cs",
                        "occu": 1
                    }
                ],
                "abc": [
                    0.62549066,
                    0.62549066,
                    0.99934065
                ],
                "xyz": [
                    2.6470931487009954,
                    4.584899729525726,
                    6.071057896887869
                ],
                "label": "Cs",
                "properties": {}
            },
            {
                "species": [
                    {
                        "element": "Cs",
                        "occu": 1
                    }
                ],
                "abc": [
                    0.0,
                    0.37450934,
                    0.99934065
                ],
                "xyz": [
                    -1.5849335112990044,
                    2.745185310474274,
                    6.071057896887869
                ],
                "label": "Cs",
                "properties": {}
            },
            {
                "species": [
                    {
                        "element": "Cs",
                        "occu": 1
                    }
                ],
                "abc": [
                    0.37450934,
                    0.0,
                    0.99934065
                ],
                "xyz": [
                    3.169867022598009,
                    0.0,
                    6.071057896887869
                ],
                "label": "Cs",
                "properties": {}
            },
            {
                "species": [
                    {
                        "element": "As",
                        "occu": 1
                    }
                ],
                "abc": [
                    0.666667,
                    0.333333,
                    0.46940449
                ],
                "xyz": [
                    4.23203089202666,
                    2.44335923663832,
                    2.85166207924107
                ],
                "label": "As",
                "properties": {}
            },
            {
                "species": [
                    {
                        "element": "As",
                        "occu": 1
                    }
                ],
                "abc": [
                    0.333333,
                    0.666667,
                    0.46940449
                ],
                "xyz": [
                    -4.232026660222488e-06,
                    4.8867258033616805,
                    2.85166207924107
                ],
                "label": "As",
                "properties": {}
            },
            {
                "species": [
                    {
                        "element": "As",
                        "occu": 1
                    }
                ],
                "abc": [
                    0.25281421,
                    0.25281421,
                    0.49723488
                ],
                "xyz": [
                    1.0699164767468385,
                    1.8531496586204184,
                    3.020733465442531
                ],
                "label": "As",
                "properties": {}
            },
            {
                "species": [
                    {
                        "element": "As",
                        "occu": 1
                    }
                ],
                "abc": [
                    0.0,
                    0.74718579,
                    0.49723488
                ],
                "xyz": [
                    -3.1621101832531613,
                    5.476935381379581,
                    3.020733465442531
                ],
                "label": "As",
                "properties": {}
            },
            {
                "species": [
                    {
                        "element": "As",
                        "occu": 1
                    }
                ],
                "abc": [
                    0.74718579,
                    0.0,
                    0.49723488
                ],
                "xyz": [
                    6.324220366506323,
                    0.0,
                    3.020733465442531
                ],
                "label": "As",
                "properties": {}
            },
            {
                "species": [
                    {
                        "element": "O",
                        "occu": 1
                    }
                ],
                "abc": [
                    0.72556178,
                    0.18926514,
                    0.62782412
                ],
                "xyz": [
                    5.340218474585478,
                    1.3873295713075056,
                    3.8140713895533787
                ],
                "label": "O",
                "properties": {}
            },
            {
                "species": [
                    {
                        "element": "O",
                        "occu": 1
                    }
                ],
                "abc": [
                    0.81073486,
                    0.53629664,
                    0.62782412
                ],
                "xyz": [
                    4.592481405274313,
                    3.9310999778662654,
                    3.8140713895533787
                ],
                "label": "O",
                "properties": {}
            },
            {
                "species": [
                    {
                        "element": "O",
                        "occu": 1
                    }
                ],
                "abc": [
                    0.46370336,
                    0.27443822,
                    0.62782412
                ],
                "xyz": [
                    2.76338010014021,
                    2.0116554908262287,
                    3.8140713895533787
                ],
                "label": "O",
                "properties": {}
            },
            {
                "species": [
                    {
                        "element": "O",
                        "occu": 1
                    }
                ],
                "abc": [
                    0.18926514,
                    0.72556178,
                    0.62782412
                ],
                "xyz": [
                    -1.4686465598597904,
                    5.318429549173771,
                    3.8140713895533787
                ],
                "label": "O",
                "properties": {}
            },
            {
                "species": [
                    {
                        "element": "O",
                        "occu": 1
                    }
                ],
                "abc": [
                    0.53629664,
                    0.81073486,
                    0.62782412
                ],
                "xyz": [
                    1.108191814585477,
                    5.942755468692494,
                    3.8140713895533787
                ],
                "label": "O",
                "properties": {}
            },
            {
                "species": [
                    {
                        "element": "O",
                        "occu": 1
                    }
                ],
                "abc": [
                    0.27443822,
                    0.46370336,
                    0.62782412
                ],
                "xyz": [
                    0.36045474527431276,
                    3.3989850621337347,
                    3.8140713895533787
                ],
                "label": "O",
                "properties": {}
            },
            {
                "species": [
                    {
                        "element": "O",
                        "occu": 1
                    }
                ],
                "abc": [
                    0.31849924,
                    0.31849924,
                    0.23220824
                ],
                "xyz": [
                    1.3478972748697384,
                    2.33462651437537,
                    1.4106798009011576
                ],
                "label": "O",
                "properties": {}
            },
            {
                "species": [
                    {
                        "element": "O",
                        "occu": 1
                    }
                ],
                "abc": [
                    0.0,
                    0.68150076,
                    0.23220824
                ],
                "xyz": [
                    -2.8841293851302616,
                    4.995458525624631,
                    1.4106798009011576
                ],
                "label": "O",
                "properties": {}
            },
            {
                "species": [
                    {
                        "element": "O",
                        "occu": 1
                    }
                ],
                "abc": [
                    0.68150076,
                    0.0,
                    0.23220824
                ],
                "xyz": [
                    5.768258770260523,
                    0.0,
                    1.4106798009011576
                ],
                "label": "O",
                "properties": {}
            }
        ]
    },
    "spacegroup": {
        "source": "spglib",
        "symbol": "P31m",
        "number": 157,
        "point_group": "3m",
        "crystal_system": "trigonal",
        "hall": "P 3 -2"
    },
    "dielectric": {
        "epsilon_ionic": [
            [
                4.74422358,
                5.244e-05,
                1.22e-05
            ],
            [
                5.244e-05,
                4.74395748,
                4.918e-05
            ],
            [
                1.22e-05,
                4.918e-05,
                2.64653209
            ]
        ],
        "epsilon_ionic_avg": 4.044904383333333,
        "epsilon_ionic_eig": [
            4.744233541598029,
            4.743947519626072,
            2.646532088775898
        ],
        "epsilon_electronic": [
            [
                3.35757587,
                -2.3e-07,
                0.0
            ],
            [
                -2.3e-07,
                3.35757594,
                0.0
            ],
            [
                0.0,
                0.0,
                2.83513875
            ]
        ],
        "epsilon_electronic_avg": 3.183430186666667,
        "epsilon_electronic_eig": [
            3.3575756723521972,
            3.3575761376478024,
            2.83513875
        ]
    },
    "phonon": {
        "lowest_freq": -0.08218738822674586,
        "frequency": [
            -0.08218738822674586,
            -0.08218738242804265,
            -0.017615241674819707,
            1.220927245112548,
            1.2209272781415603,
            1.278155005850115,
            1.5813669414315514,
            1.6014188149173998,
            1.6014188225481374,
            1.761846591878513,
            1.761846591878513,
            1.808169727730774,
            2.19134282180773,
            2.191342899878622,
            2.42020520123028,
            2.874254917796266,
            2.874254981569349,
            2.982578076750616,
            3.213778520825117,
            3.554981185254375,
            3.5549813674382738,
            3.9812453962741907,
            3.981245497564157,
            4.455199738006569,
            4.7726985127895025,
            5.863716961308404,
            6.590972609124346,
            6.59097270182695,
            7.306883889656476,
            7.306884073620082,
            7.997851465408698,
            8.355419580147538,
            8.355419799526224,
            9.716379569344397,
            9.966252892509631,
            9.966253113214563,
            13.753623615733302,
            13.75362366015798,
            14.190976747035604,
            14.190976790091158,
            16.13325469195339,
            16.47360865430473,
            16.47360872848402,
            16.5107808351545,
            19.051753092834605,
            19.051753221116833,
            21.59474288980694,
            21.871465978869228,
            24.349801880419662,
            24.34980198079014,
            24.83211120100972
        ]
    },
    "born_effective_charge": {
        "avg_abs_trace": 1.8439147058823533,
        "tensors": [
            [
                [
                    1.28786,
                    -0.08818,
                    -0.00937
                ],
                [
                    -0.08815,
                    1.18589,
                    -0.01615
                ],
                [
                    -0.02111,
                    -0.03656,
                    1.57894
                ]
            ],
            [
                [
                    1.28786,
                    0.08818,
                    -0.00937
                ],
                [
                    0.08806,
                    1.18603,
                    0.01626
                ],
                [
                    -0.02111,
                    0.03656,
                    1.57894
                ]
            ],
            [
                [
                    1.13526,
                    0.0,
                    0.01877
                ],
                [
                    -2e-05,
                    1.33879,
                    2e-05
                ],
                [
                    0.04222,
                    0.0,
                    1.57894
                ]
            ],
            [
                [
                    2.99229,
                    0.42494,
                    -6e-05
                ],
                [
                    -0.42484,
                    2.99236,
                    -3e-05
                ],
                [
                    0.0,
                    0.0,
                    1.21295
                ]
            ],
            [
                [
                    2.99229,
                    -0.42494,
                    -6e-05
                ],
                [
                    0.42519,
                    2.99233,
                    -0.00035
                ],
                [
                    0.0,
                    0.0,
                    1.21295
                ]
            ],
            [
                [
                    2.75316,
                    -0.44079,
                    0.23007
                ],
                [
                    -0.44101,
                    2.24377,
                    0.39808
                ],
                [
                    0.1007,
                    0.17441,
                    1.82459
                ]
            ],
            [
                [
                    2.75316,
                    0.44079,
                    0.23007
                ],
                [
                    0.44041,
                    2.24457,
                    -0.398
                ],
                [
                    0.1007,
                    -0.17441,
                    1.82459
                ]
            ],
            [
                [
                    1.9901,
                    0.0,
                    -0.46002
                ],
                [
                    4e-05,
                    3.00762,
                    0.00039
                ],
                [
                    -0.20139,
                    0.0,
                    1.82459
                ]
            ],
            [
                [
                    -1.8843,
                    1.04537,
                    -0.44674
                ],
                [
                    1.67747,
                    -2.65966,
                    0.18982
                ],
                [
                    0.02847,
                    -0.21628,
                    -1.15561
                ]
            ],
            [
                [
                    -1.2869,
                    -1.33286,
                    0.05888
                ],
                [
                    -0.70039,
                    -3.25713,
                    -0.4819
                ],
                [
                    0.17307,
                    0.13279,
                    -1.15561
                ]
            ],
            [
                [
                    -3.64522,
                    -0.66115,
                    0.38787
                ],
                [
                    -0.0289,
                    -0.89897,
                    0.29208
                ],
                [
                    -0.20154,
                    0.08348,
                    -1.15561
                ]
            ],
            [
                [
                    -3.64522,
                    0.66115,
                    0.38787
                ],
                [
                    0.0288,
                    -0.89906,
                    -0.292
                ],
                [
                    -0.20154,
                    -0.08348,
                    -1.15561
                ]
            ],
            [
                [
                    -1.8843,
                    -1.04537,
                    -0.44674
                ],
                [
                    -1.67772,
                    -2.65992,
                    -0.18998
                ],
                [
                    0.02847,
                    0.21628,
                    -1.15561
                ]
            ],
            [
                [
                    -1.2869,
                    1.33286,
                    0.05888
                ],
                [
                    0.7006,
                    -3.25793,
                    0.48204
                ],
                [
                    0.17307,
                    -0.13279,
                    -1.15561
                ]
            ],
            [
                [
                    -1.22976,
                    0.07515,
                    0.01775
                ],
                [
                    0.07526,
                    -1.14233,
                    0.0309
                ],
                [
                    0.25369,
                    0.4394,
                    -1.90095
                ]
            ],
            [
                [
                    -1.22976,
                    -0.07515,
                    0.01775
                ],
                [
                    -0.07507,
                    -1.14298,
                    -0.031
                ],
                [
                    0.25369,
                    -0.4394,
                    -1.90095
                ]
            ],
            [
                [
                    -1.09962,
                    0.0,
                    -0.03554
                ],
                [
                    0.00028,
                    -1.27335,
                    -0.00018
                ],
                [
                    -0.50737,
                    0.0,
                    -1.90095
                ]
            ]
        ]
    },
    "band_gap": 3.0535,
    "is_direct": false,
    "formula": "Cs3As5O9"
}