{
    "mp_id": "mp-3771",
    "nelements": 3,
    "nsites": 10,
    "elements": [
        "Mg",
        "O",
        "Ti"
    ],
    "structure": {
        "@module": "pymatgen.core.structure",
        "@class": "Structure",
        "charge": null,
        "lattice": {
            "matrix": [
                [
                    2.54940715,
                    1.47189974,
                    4.63804471
                ],
                [
                    -2.54940677,
                    1.4719004,
                    4.63804471
                ],
                [
                    -3.8e-07,
                    -2.94380115,
                    4.63804471
                ]
            ],
            "a": 5.493398255455558,
            "b": 5.493398255943308,
            "c": 5.493398214466201,
            "alpha": 55.30210620551461,
            "beta": 55.302106189615685,
            "gamma": 55.30211784067056,
            "volume": 104.4248292112824
        },
        "sites": [
            {
                "species": [
                    {
                        "element": "Mg",
                        "occu": 1
                    }
                ],
                "abc": [
                    0.64373586,
                    0.64373586,
                    0.64373586
                ],
                "xyz": [
                    -2.3090382839948244e-17,
                    -6.50173218597061e-07,
                    8.957027100330903
                ],
                "label": "Mg",
                "properties": {}
            },
            {
                "species": [
                    {
                        "element": "Mg",
                        "occu": 1
                    }
                ],
                "abc": [
                    0.35626414,
                    0.35626414,
                    0.35626414
                ],
                "xyz": [
                    -6.590255142817358e-17,
                    -3.5982678125989764e-07,
                    4.957107029669098
                ],
                "label": "Mg",
                "properties": {}
            },
            {
                "species": [
                    {
                        "element": "Ti",
                        "occu": 1
                    }
                ],
                "abc": [
                    0.85125265,
                    0.85125265,
                    0.85125265
                ],
                "xyz": [
                    -1.3067240804763135e-16,
                    -8.597651763864178e-07,
                    11.844443550617946
                ],
                "label": "Ti",
                "properties": {}
            },
            {
                "species": [
                    {
                        "element": "Ti",
                        "occu": 1
                    }
                ],
                "abc": [
                    0.14874735,
                    0.14874735,
                    0.14874735
                ],
                "xyz": [
                    -1.3831723773862604e-17,
                    -1.50234823526052e-07,
                    2.0696905793820557
                ],
                "label": "Ti",
                "properties": {}
            },
            {
                "species": [
                    {
                        "element": "O",
                        "occu": 1
                    }
                ],
                "abc": [
                    0.95262076,
                    0.55881795,
                    0.23006348
                ],
                "xyz": [
                    1.0039638244307898,
                    1.5474254760977804,
                    8.077165019782914
                ],
                "label": "O",
                "properties": {}
            },
            {
                "species": [
                    {
                        "element": "O",
                        "occu": 1
                    }
                ],
                "abc": [
                    0.23006348,
                    0.95262076,
                    0.55881795
                ],
                "xyz": [
                    -1.8420925462714839,
                    0.09574433023715656,
                    8.077165019782914
                ],
                "label": "O",
                "properties": {}
            },
            {
                "species": [
                    {
                        "element": "O",
                        "occu": 1
                    }
                ],
                "abc": [
                    0.55881795,
                    0.23006348,
                    0.95262076
                ],
                "xyz": [
                    0.8381287218406941,
                    -1.643171565252149,
                    8.077165019782914
                ],
                "label": "O",
                "properties": {}
            },
            {
                "species": [
                    {
                        "element": "O",
                        "occu": 1
                    }
                ],
                "abc": [
                    0.04737924,
                    0.44118205,
                    0.76993652
                ],
                "xyz": [
                    -1.00396382443079,
                    -1.5474264860977807,
                    5.836969110217085
                ],
                "label": "O",
                "properties": {}
            },
            {
                "species": [
                    {
                        "element": "O",
                        "occu": 1
                    }
                ],
                "abc": [
                    0.44118205,
                    0.76993652,
                    0.04737924
                ],
                "xyz": [
                    -0.8381287218406942,
                    1.6431705552521487,
                    5.836969110217085
                ],
                "label": "O",
                "properties": {}
            },
            {
                "species": [
                    {
                        "element": "O",
                        "occu": 1
                    }
                ],
                "abc": [
                    0.76993652,
                    0.04737924,
                    0.44118205
                ],
                "xyz": [
                    1.842092546271484,
                    -0.09574534023715686,
                    5.836969110217085
                ],
                "label": "O",
                "properties": {}
            }
        ]
    },
    "spacegroup": {
        "source": "spglib",
        "symbol": "R-3",
        "number": 148,
        "point_group": "-3",
        "crystal_system": "trigonal",
        "hall": "-R 3"
    },
    "dielectric": {
        "epsilon_ionic": [
            [
                13.80444764,
                -3.49e-06,
                1.6e-07
            ],
            [
                -3.49e-06,
                13.80450234,
                -4.15e-06
            ],
            [
                1.6e-07,
                -4.15e-06,
                8.42018028
            ]
        ],
        "epsilon_ionic_avg": 12.009710086666667,
        "epsilon_ionic_eig": [
            13.80444741822821,
            13.804502561774997,
            8.420180279996796
        ],
        "epsilon_electronic": [
            [
                5.23780652,
                -6.7e-07,
                0.0
            ],
            [
                6.7e-07,
                5.23780545,
                2.9e-07
            ],
            [
                0.0,
                2.9e-07,
                4.01473735
            ]
        ],
        "epsilon_electronic_avg": 4.830116439999999,
        "epsilon_electronic_eig": [
            5.237805985000033,
            5.237805985000033,
            4.0147373499999315
        ]
    },
    "phonon": {
        "lowest_freq": -0.024657561784939747,
        "frequency": [
            -0.024657561784939747,
            -0.01932967334494739,
            -0.01932967132194253,
            6.589515070314118,
            8.100886855419425,
            8.100887292877925,
            8.59661332268555,
            8.596613976571284,
            8.749081559130225,
            9.120881973925279,
            9.733889735574088,
            9.733890250291502,
            9.935174868076924,
            9.935175347766764,
            11.380549227332624,
            11.383406966507124,
            11.383407653542559,
            11.983864168745727,
            13.552999557209915,
            13.552999755572014,
            14.026586184189654,
            14.02658673304765,
            15.278099698134886,
            16.130708500845856,
            16.13070940991984,
            16.429904549141686,
            19.187702346290205,
            19.187703237903413,
            20.110675257044512,
            20.348124879121187
        ]
    },
    "born_effective_charge": {
        "avg_abs_trace": 2.8581836666666662,
        "tensors": [
            [
                [
                    2.21372,
                    0.07115,
                    0.0
                ],
                [
                    -0.07115,
                    2.21372,
                    -0.0
                ],
                [
                    0.0,
                    0.0,
                    2.77589
                ]
            ],
            [
                [
                    2.21372,
                    0.07115,
                    -0.0
                ],
                [
                    -0.07116,
                    2.21373,
                    -0.0
                ],
                [
                    0.0,
                    0.0,
                    2.77588
                ]
            ],
            [
                [
                    5.62636,
                    -0.00836,
                    -2e-05
                ],
                [
                    0.00834,
                    5.62635,
                    -1e-05
                ],
                [
                    0.0,
                    0.0,
                    2.98023
                ]
            ],
            [
                [
                    5.62641,
                    -0.00837,
                    2e-05
                ],
                [
                    0.0084,
                    5.62643,
                    1e-05
                ],
                [
                    0.0,
                    0.0,
                    2.98031
                ]
            ],
            [
                [
                    -2.86463,
                    0.85676,
                    0.08796
                ],
                [
                    0.8986,
                    -2.36211,
                    0.52611
                ],
                [
                    0.07623,
                    0.55263,
                    -1.91872
                ]
            ],
            [
                [
                    -1.72766,
                    -0.24217,
                    -0.49961
                ],
                [
                    -0.20033,
                    -3.4991,
                    -0.18688
                ],
                [
                    -0.51671,
                    -0.2103,
                    -1.91872
                ]
            ],
            [
                [
                    -3.24781,
                    -0.67734,
                    0.41164
                ],
                [
                    -0.6355,
                    -1.9789,
                    -0.33922
                ],
                [
                    0.44048,
                    -0.34234,
                    -1.91872
                ]
            ],
            [
                [
                    -2.86461,
                    0.85671,
                    0.08802
                ],
                [
                    0.89857,
                    -2.36214,
                    0.52608
                ],
                [
                    0.07626,
                    0.55265,
                    -1.91872
                ]
            ],
            [
                [
                    -3.24783,
                    -0.67734,
                    0.41159
                ],
                [
                    -0.63546,
                    -1.97892,
                    -0.33927
                ],
                [
                    0.44048,
                    -0.34236,
                    -1.91872
                ]
            ],
            [
                [
                    -1.72767,
                    -0.24219,
                    -0.4996
                ],
                [
                    -0.20031,
                    -3.49906,
                    -0.18681
                ],
                [
                    -0.51674,
                    -0.21028,
                    -1.91872
                ]
            ]
        ]
    },
    "band_gap": 3.5323999999999995,
    "is_direct": false,
    "formula": "MgTiO3"
}