{
    "mp_id": "mp-31358",
    "nelements": 3,
    "nsites": 24,
    "elements": [
        "B",
        "O",
        "Rb"
    ],
    "structure": {
        "@module": "pymatgen.core.structure",
        "@class": "Structure",
        "charge": null,
        "lattice": {
            "matrix": [
                [
                    6.56064946,
                    3.7877925,
                    2.57481159
                ],
                [
                    -6.56064946,
                    3.7877925,
                    2.57481159
                ],
                [
                    0.0,
                    -7.57558599,
                    2.57481158
                ]
            ],
            "a": 8.001196665752746,
            "b": 8.001196665752746,
            "c": 8.00119727068308,
            "alpha": 110.16128240413816,
            "beta": 110.16128240413816,
            "gamma": 110.16128541725219,
            "volume": 383.91029335540406
        },
        "sites": [
            {
                "species": [
                    {
                        "element": "Rb",
                        "occu": 1
                    }
                ],
                "abc": [
                    0.18940786,
                    0.75,
                    0.31059214
                ],
                "xyz": [
                    -3.677848520571244,
                    1.2053645821609313,
                    3.2185144843940785
                ],
                "label": "Rb",
                "properties": {}
            },
            {
                "species": [
                    {
                        "element": "Rb",
                        "occu": 1
                    }
                ],
                "abc": [
                    0.75,
                    0.31059214,
                    0.18940786
                ],
                "xyz": [
                    2.8828009394287553,
                    2.5824274228390687,
                    3.2185144856059216
                ],
                "label": "Rb",
                "properties": {}
            },
            {
                "species": [
                    {
                        "element": "Rb",
                        "occu": 1
                    }
                ],
                "abc": [
                    0.31059214,
                    0.18940786,
                    0.75
                ],
                "xyz": [
                    0.7950475811424886,
                    -3.7877932425000003,
                    3.21851448
                ],
                "label": "Rb",
                "properties": {}
            },
            {
                "species": [
                    {
                        "element": "Rb",
                        "occu": 1
                    }
                ],
                "abc": [
                    0.81059214,
                    0.25,
                    0.68940786
                ],
                "xyz": [
                    3.677848520571244,
                    -1.2053655721609315,
                    4.505920275605921
                ],
                "label": "Rb",
                "properties": {}
            },
            {
                "species": [
                    {
                        "element": "Rb",
                        "occu": 1
                    }
                ],
                "abc": [
                    0.25,
                    0.68940786,
                    0.81059214
                ],
                "xyz": [
                    -2.882800939428755,
                    -2.582428412839069,
                    4.505920274394079
                ],
                "label": "Rb",
                "properties": {}
            },
            {
                "species": [
                    {
                        "element": "Rb",
                        "occu": 1
                    }
                ],
                "abc": [
                    0.68940786,
                    0.81059214,
                    0.25
                ],
                "xyz": [
                    -0.7950475811424891,
                    3.7877922525,
                    4.50592028
                ],
                "label": "Rb",
                "properties": {}
            },
            {
                "species": [
                    {
                        "element": "B",
                        "occu": 1
                    }
                ],
                "abc": [
                    0.86053763,
                    0.75,
                    0.63946237
                ],
                "xyz": [
                    0.7251986425691808,
                    1.2560801845775789,
                    5.793326071105376
                ],
                "label": "B",
                "properties": {}
            },
            {
                "species": [
                    {
                        "element": "B",
                        "occu": 1
                    }
                ],
                "abc": [
                    0.75,
                    0.63946237,
                    0.86053763
                ],
                "xyz": [
                    0.7251986425691799,
                    -1.2560816695775792,
                    5.793326068894624
                ],
                "label": "B",
                "properties": {}
            },
            {
                "species": [
                    {
                        "element": "B",
                        "occu": 1
                    }
                ],
                "abc": [
                    0.63946237,
                    0.86053763,
                    0.75
                ],
                "xyz": [
                    -1.4503972851383606,
                    -7.425000001504145e-07,
                    5.79332607
                ],
                "label": "B",
                "properties": {}
            },
            {
                "species": [
                    {
                        "element": "B",
                        "occu": 1
                    }
                ],
                "abc": [
                    0.13946237,
                    0.25,
                    0.36053763
                ],
                "xyz": [
                    -0.7251986425691798,
                    -1.2560811745775788,
                    1.9311086888946236
                ],
                "label": "B",
                "properties": {}
            },
            {
                "species": [
                    {
                        "element": "B",
                        "occu": 1
                    }
                ],
                "abc": [
                    0.25,
                    0.36053763,
                    0.13946237
                ],
                "xyz": [
                    -0.7251986425691797,
                    1.256080679577579,
                    1.931108691105376
                ],
                "label": "B",
                "properties": {}
            },
            {
                "species": [
                    {
                        "element": "B",
                        "occu": 1
                    }
                ],
                "abc": [
                    0.36053763,
                    0.13946237,
                    0.25
                ],
                "xyz": [
                    1.4503972851383593,
                    -2.4750000005013817e-07,
                    1.9311086899999999
                ],
                "label": "B",
                "properties": {}
            },
            {
                "species": [
                    {
                        "element": "O",
                        "occu": 1
                    }
                ],
                "abc": [
                    0.4614206,
                    0.0385794,
                    0.25
                ],
                "xyz": [
                    2.774112890445752,
                    -2.4750000005013817e-07,
                    1.9311086899999999
                ],
                "label": "O",
                "properties": {}
            },
            {
                "species": [
                    {
                        "element": "O",
                        "occu": 1
                    }
                ],
                "abc": [
                    0.25,
                    0.4614206,
                    0.0385794
                ],
                "xyz": [
                    -1.387056445222876,
                    2.4024520508828937,
                    1.9311086921142058
                ],
                "label": "O",
                "properties": {}
            },
            {
                "species": [
                    {
                        "element": "O",
                        "occu": 1
                    }
                ],
                "abc": [
                    0.0385794,
                    0.25,
                    0.4614206
                ],
                "xyz": [
                    -1.387056445222876,
                    -2.402452545882894,
                    1.9311086878857942
                ],
                "label": "O",
                "properties": {}
            },
            {
                "species": [
                    {
                        "element": "O",
                        "occu": 1
                    }
                ],
                "abc": [
                    0.5385794,
                    0.9614206,
                    0.75
                ],
                "xyz": [
                    -2.774112890445751,
                    -7.425000001504145e-07,
                    5.793326069999999
                ],
                "label": "O",
                "properties": {}
            },
            {
                "species": [
                    {
                        "element": "O",
                        "occu": 1
                    }
                ],
                "abc": [
                    0.75,
                    0.5385794,
                    0.9614206
                ],
                "xyz": [
                    1.3870564452228753,
                    -2.402453040882894,
                    5.793326067885793
                ],
                "label": "O",
                "properties": {}
            },
            {
                "species": [
                    {
                        "element": "O",
                        "occu": 1
                    }
                ],
                "abc": [
                    0.9614206,
                    0.75,
                    0.5385794
                ],
                "xyz": [
                    1.3870564452228757,
                    2.4024515558828936,
                    5.793326072114206
                ],
                "label": "O",
                "properties": {}
            },
            {
                "species": [
                    {
                        "element": "O",
                        "occu": 1
                    }
                ],
                "abc": [
                    0.35573398,
                    0.25,
                    0.14426602
                ],
                "xyz": [
                    0.6936835787906508,
                    1.20149498649409,
                    1.9311086910573398
                ],
                "label": "O",
                "properties": {}
            },
            {
                "species": [
                    {
                        "element": "O",
                        "occu": 1
                    }
                ],
                "abc": [
                    0.14426602,
                    0.35573398,
                    0.25
                ],
                "xyz": [
                    -1.3873671575813016,
                    -2.4750000005013817e-07,
                    1.9311086899999999
                ],
                "label": "O",
                "properties": {}
            },
            {
                "species": [
                    {
                        "element": "O",
                        "occu": 1
                    }
                ],
                "abc": [
                    0.25,
                    0.14426602,
                    0.35573398
                ],
                "xyz": [
                    0.6936835787906508,
                    -1.2014954814940904,
                    1.93110868894266
                ],
                "label": "O",
                "properties": {}
            },
            {
                "species": [
                    {
                        "element": "O",
                        "occu": 1
                    }
                ],
                "abc": [
                    0.64426602,
                    0.75,
                    0.85573398
                ],
                "xyz": [
                    -0.693683578790651,
                    -1.2014959764940905,
                    5.79332606894266
                ],
                "label": "O",
                "properties": {}
            },
            {
                "species": [
                    {
                        "element": "O",
                        "occu": 1
                    }
                ],
                "abc": [
                    0.85573398,
                    0.64426602,
                    0.75
                ],
                "xyz": [
                    1.387367157581302,
                    -7.425000001504145e-07,
                    5.79332607
                ],
                "label": "O",
                "properties": {}
            },
            {
                "species": [
                    {
                        "element": "O",
                        "occu": 1
                    }
                ],
                "abc": [
                    0.75,
                    0.85573398,
                    0.64426602
                ],
                "xyz": [
                    -0.693683578790651,
                    1.2014944914940902,
                    5.79332607105734
                ],
                "label": "O",
                "properties": {}
            }
        ]
    },
    "spacegroup": {
        "source": "spglib",
        "symbol": "R-3c",
        "number": 167,
        "point_group": "-3m",
        "crystal_system": "trigonal",
        "hall": "-R 3 2\"c"
    },
    "dielectric": {
        "epsilon_ionic": [
            [
                3.52137102,
                -8.8e-07,
                0.0
            ],
            [
                -8.8e-07,
                3.52137541,
                9.6e-06
            ],
            [
                0.0,
                9.6e-06,
                4.43216811
            ]
        ],
        "epsilon_ionic_avg": 3.8249715133333324,
        "epsilon_ionic_eig": [
            3.521370850165506,
            3.5213755797333053,
            4.432168110101187
        ],
        "epsilon_electronic": [
            [
                2.59948366,
                0.0,
                0.0
            ],
            [
                -0.0,
                2.5994836,
                0.0
            ],
            [
                0.0,
                -0.0,
                2.24323085
            ]
        ],
        "epsilon_electronic_avg": 2.480732703333333,
        "epsilon_electronic_eig": [
            2.59948366,
            2.5994836,
            2.24323085
        ]
    },
    "phonon": {
        "lowest_freq": -0.03765475975602899,
        "frequency": [
            -0.03765475975602899,
            -0.03373846885836041,
            -0.033738468459942585,
            1.4359942988822374,
            1.6899514498188593,
            1.7702390487654565,
            1.7702390487654565,
            2.027313818683067,
            2.027313818683067,
            2.17726563421614,
            2.263730043725076,
            2.263730070715941,
            2.3373340670884284,
            2.678663413360657,
            2.6786634224846155,
            3.043386376488527,
            3.0433863845190587,
            3.132086532691931,
            3.2787540468117866,
            3.4507983708103707,
            3.5908790544174196,
            3.590879061223556,
            3.798465331596972,
            3.7984653380311526,
            4.097944997531602,
            4.266999982675014,
            4.279101783230115,
            4.279101814643266,
            4.424750790846584,
            4.4247508184639734,
            5.086541408033536,
            5.086541408033536,
            5.110278551761703,
            5.134220248614878,
            5.134220248614878,
            5.2796464080147825,
            10.72733620255203,
            10.727336248117886,
            10.957816347694266,
            10.957816392301716,
            13.422100073228686,
            13.422100109646255,
            13.473272208823316,
            13.473272245102569,
            17.337704138836894,
            17.341878512309094,
            17.57763873296657,
            17.60432992975446,
            20.29209314200497,
            20.29209314200497,
            20.634353262464106,
            20.634353262464106,
            20.986044683725446,
            21.721471370713463,
            22.13621171668573,
            22.198547016416143,
            27.739478339251594,
            27.73947842735712,
            27.856380683655235,
            27.856380771391017,
            32.00230175613605,
            32.003344450770705,
            35.40800623289068,
            35.40800654349856,
            35.87276304009387,
            35.87276331261275,
            41.60128165276853,
            41.60128182901319,
            41.871299112985234,
            41.87129928809335,
            44.84162408084515,
            45.02936159827973
        ]
    },
    "born_effective_charge": {
        "avg_abs_trace": 1.5635702777777778,
        "tensors": [
            [
                [
                    1.27676,
                    -0.03648,
                    -0.02588
                ],
                [
                    -0.03646,
                    1.23458,
                    0.01504
                ],
                [
                    -0.05082,
                    0.02934,
                    1.21455
                ]
            ],
            [
                [
                    1.27676,
                    0.03648,
                    0.02588
                ],
                [
                    0.0366,
                    1.23457,
                    0.01489
                ],
                [
                    0.05082,
                    0.02934,
                    1.21455
                ]
            ],
            [
                [
                    1.21354,
                    0.0,
                    0.0
                ],
                [
                    6e-05,
                    1.29784,
                    -0.02991
                ],
                [
                    -0.0,
                    -0.05868,
                    1.21455
                ]
            ],
            [
                [
                    1.27675,
                    -0.03657,
                    -0.02592
                ],
                [
                    -0.0366,
                    1.23457,
                    0.01489
                ],
                [
                    -0.05082,
                    0.02934,
                    1.21455
                ]
            ],
            [
                [
                    1.27675,
                    0.03657,
                    0.02592
                ],
                [
                    0.03646,
                    1.23458,
                    0.01504
                ],
                [
                    0.05082,
                    0.02934,
                    1.21455
                ]
            ],
            [
                [
                    1.21343,
                    0.0,
                    0.0
                ],
                [
                    -6e-05,
                    1.29784,
                    -0.02991
                ],
                [
                    0.0,
                    -0.05868,
                    1.21455
                ]
            ],
            [
                [
                    2.39826,
                    0.31709,
                    0.0181
                ],
                [
                    0.3168,
                    2.76441,
                    -0.01053
                ],
                [
                    0.00958,
                    -0.00552,
                    0.49292
                ]
            ],
            [
                [
                    2.39826,
                    -0.31709,
                    -0.0181
                ],
                [
                    -0.31729,
                    2.7643,
                    -0.01034
                ],
                [
                    -0.00957,
                    -0.00553,
                    0.49292
                ]
            ],
            [
                [
                    2.94732,
                    0.0,
                    -0.0
                ],
                [
                    -0.00021,
                    2.21521,
                    0.02087
                ],
                [
                    -1e-05,
                    0.01105,
                    0.49292
                ]
            ],
            [
                [
                    2.39827,
                    0.31703,
                    0.01805
                ],
                [
                    0.31729,
                    2.7643,
                    -0.01034
                ],
                [
                    0.00957,
                    -0.00553,
                    0.49292
                ]
            ],
            [
                [
                    2.39827,
                    -0.31703,
                    -0.01805
                ],
                [
                    -0.3168,
                    2.76441,
                    -0.01053
                ],
                [
                    -0.00958,
                    -0.00552,
                    0.49292
                ]
            ],
            [
                [
                    2.94751,
                    0.0,
                    -0.0
                ],
                [
                    0.00021,
                    2.21521,
                    0.02087
                ],
                [
                    1e-05,
                    0.01105,
                    0.49292
                ]
            ],
            [
                [
                    -2.35308,
                    0.0,
                    -0.0
                ],
                [
                    -0.0011,
                    -1.32673,
                    -0.06101
                ],
                [
                    3e-05,
                    -0.04385,
                    -1.15287
                ]
            ],
            [
                [
                    -1.58345,
                    0.44464,
                    0.0528
                ],
                [
                    0.44453,
                    -2.09646,
                    0.03071
                ],
                [
                    0.03796,
                    0.02195,
                    -1.15287
                ]
            ],
            [
                [
                    -1.58345,
                    -0.44464,
                    -0.0528
                ],
                [
                    -0.44503,
                    -2.09773,
                    0.0303
                ],
                [
                    -0.03799,
                    0.0219,
                    -1.15287
                ]
            ],
            [
                [
                    -2.35486,
                    0.0,
                    0.0
                ],
                [
                    0.0011,
                    -1.32673,
                    -0.06101
                ],
                [
                    -3e-05,
                    -0.04385,
                    -1.15287
                ]
            ],
            [
                [
                    -1.58352,
                    0.44482,
                    0.05287
                ],
                [
                    0.44503,
                    -2.09773,
                    0.0303
                ],
                [
                    0.03799,
                    0.0219,
                    -1.15287
                ]
            ],
            [
                [
                    -1.58352,
                    -0.44482,
                    -0.05287
                ],
                [
                    -0.44453,
                    -2.09646,
                    0.03071
                ],
                [
                    -0.03796,
                    0.02195,
                    -1.15287
                ]
            ],
            [
                [
                    -2.30408,
                    0.53261,
                    -0.04477
                ],
                [
                    0.53193,
                    -1.68965,
                    0.02607
                ],
                [
                    -0.04298,
                    0.02485,
                    -0.5546
                ]
            ],
            [
                [
                    -1.38175,
                    0.0,
                    -0.0
                ],
                [
                    -0.00154,
                    -2.61165,
                    -0.05155
                ],
                [
                    -3e-05,
                    -0.04965,
                    -0.5546
                ]
            ],
            [
                [
                    -2.30408,
                    -0.53261,
                    0.04477
                ],
                [
                    -0.53324,
                    -1.6887,
                    0.02547
                ],
                [
                    0.04301,
                    0.0248,
                    -0.5546
                ]
            ],
            [
                [
                    -2.30423,
                    0.53257,
                    -0.04451
                ],
                [
                    0.53324,
                    -1.6887,
                    0.02547
                ],
                [
                    -0.04301,
                    0.0248,
                    -0.5546
                ]
            ],
            [
                [
                    -1.38163,
                    0.0,
                    0.0
                ],
                [
                    0.00154,
                    -2.61165,
                    -0.05155
                ],
                [
                    3e-05,
                    -0.04965,
                    -0.5546
                ]
            ],
            [
                [
                    -2.30423,
                    -0.53257,
                    0.04451
                ],
                [
                    -0.53193,
                    -1.68965,
                    0.02607
                ],
                [
                    0.04298,
                    0.02485,
                    -0.5546
                ]
            ]
        ]
    },
    "band_gap": 4.0147,
    "is_direct": true,
    "formula": "RbBO2"
}