{
    "mp_id": "mp-3056",
    "nelements": 3,
    "nsites": 4,
    "elements": [
        "Na",
        "O",
        "Tl"
    ],
    "structure": {
        "@module": "pymatgen.core.structure",
        "@class": "Structure",
        "charge": null,
        "lattice": {
            "matrix": [
                [
                    1.67964882,
                    0.96974604,
                    5.43470259
                ],
                [
                    -1.67964882,
                    0.96974604,
                    5.43470259
                ],
                [
                    0.0,
                    -1.93949108,
                    5.43470259
                ]
            ],
            "a": 5.770408978779215,
            "b": 5.770408978779215,
            "c": 5.7704088149066415,
            "alpha": 33.84521304304959,
            "beta": 33.84521304304959,
            "gamma": 33.84521232430068,
            "volume": 53.11331249638357
        },
        "sites": [
            {
                "species": [
                    {
                        "element": "Na",
                        "occu": 1
                    }
                ],
                "abc": [
                    0.5,
                    0.5,
                    0.5
                ],
                "xyz": [
                    0.0,
                    4.999999999588667e-07,
                    8.152053884999999
                ],
                "label": "Na",
                "properties": {}
            },
            {
                "species": [
                    {
                        "element": "Tl",
                        "occu": 1
                    }
                ],
                "abc": [
                    0.0,
                    0.0,
                    0.0
                ],
                "xyz": [
                    0.0,
                    0.0,
                    0.0
                ],
                "label": "Tl",
                "properties": {}
            },
            {
                "species": [
                    {
                        "element": "O",
                        "occu": 1
                    }
                ],
                "abc": [
                    0.74304729,
                    0.74304729,
                    0.74304729
                ],
                "xyz": [
                    0.0,
                    7.43047289919474e-07,
                    12.114723094366443
                ],
                "label": "O",
                "properties": {}
            },
            {
                "species": [
                    {
                        "element": "O",
                        "occu": 1
                    }
                ],
                "abc": [
                    0.25695271,
                    0.25695271,
                    0.25695271
                ],
                "xyz": [
                    0.0,
                    2.5695270999825937e-07,
                    4.189384675633556
                ],
                "label": "O",
                "properties": {}
            }
        ]
    },
    "spacegroup": {
        "source": "spglib",
        "symbol": "R-3m",
        "number": 166,
        "point_group": "-3m",
        "crystal_system": "trigonal",
        "hall": "-R 3 2\""
    },
    "dielectric": {
        "epsilon_ionic": [
            [
                10.73240324,
                8e-08,
                -0.0
            ],
            [
                8e-08,
                10.73201766,
                6.91e-06
            ],
            [
                -0.0,
                6.91e-06,
                4.98306719
            ]
        ],
        "epsilon_ionic_avg": 8.815829363333334,
        "epsilon_ionic_eig": [
            10.732403240016602,
            10.732017659991707,
            4.9830671899916945
        ],
        "epsilon_electronic": [
            [
                5.72735069,
                0.0,
                0.0
            ],
            [
                0.0,
                5.72734909,
                2.4e-07
            ],
            [
                0.0,
                2.4e-07,
                3.95115037
            ]
        ],
        "epsilon_electronic_avg": 5.135283383333333,
        "epsilon_electronic_eig": [
            3.9511503699999677,
            5.727349090000033,
            5.72735069
        ]
    },
    "phonon": {
        "lowest_freq": -0.010022735216006448,
        "frequency": [
            -0.010022735216006448,
            -0.006717756149784496,
            -0.006717755203872837,
            4.027293635609519,
            4.027294199988794,
            6.5807113610876335,
            6.580712289559119,
            6.650971746193403,
            7.888271841655081,
            7.888272941541626,
            10.034247158344105,
            12.517329976839187
        ]
    },
    "born_effective_charge": {
        "avg_abs_trace": 2.0729158333333335,
        "tensors": [
            [
                [
                    0.99874,
                    -0.0,
                    -0.0
                ],
                [
                    0.0,
                    0.99875,
                    -0.0
                ],
                [
                    0.0,
                    0.0,
                    1.49664
                ]
            ],
            [
                [
                    3.70902,
                    -0.0,
                    0.0
                ],
                [
                    0.0,
                    3.70891,
                    1e-05
                ],
                [
                    -0.0,
                    -0.0,
                    1.52543
                ]
            ],
            [
                [
                    -2.35388,
                    -0.0004,
                    -0.00015
                ],
                [
                    0.0,
                    -2.35391,
                    -2e-05
                ],
                [
                    0.0,
                    -0.0,
                    -1.51103
                ]
            ],
            [
                [
                    -2.35388,
                    0.0004,
                    0.00015
                ],
                [
                    0.0,
                    -2.35375,
                    1e-05
                ],
                [
                    0.0,
                    -0.0,
                    -1.51105
                ]
            ]
        ]
    },
    "band_gap": 0.6733999999999996,
    "is_direct": false,
    "formula": "NaTlO2"
}