{
    "mp_id": "mp-30250",
    "nelements": 3,
    "nsites": 8,
    "elements": [
        "Ag",
        "O",
        "Y"
    ],
    "structure": {
        "@module": "pymatgen.core.structure",
        "@class": "Structure",
        "charge": null,
        "lattice": {
            "matrix": [
                [
                    3.48284475,
                    0.0,
                    0.0
                ],
                [
                    -1.74142237,
                    3.01623173,
                    0.0
                ],
                [
                    0.0,
                    0.0,
                    12.26784507
                ]
            ],
            "a": 3.48284475,
            "b": 3.482844486880689,
            "c": 12.26784507,
            "alpha": 90.0,
            "beta": 90.0,
            "gamma": 120.00000240410377,
            "volume": 128.87453251198517
        },
        "sites": [
            {
                "species": [
                    {
                        "element": "Y",
                        "occu": 1
                    }
                ],
                "abc": [
                    0.0,
                    0.0,
                    0.0
                ],
                "xyz": [
                    0.0,
                    0.0,
                    0.0
                ],
                "label": "Y",
                "properties": {}
            },
            {
                "species": [
                    {
                        "element": "Y",
                        "occu": 1
                    }
                ],
                "abc": [
                    0.0,
                    0.0,
                    0.5
                ],
                "xyz": [
                    0.0,
                    0.0,
                    6.133922535
                ],
                "label": "Y",
                "properties": {}
            },
            {
                "species": [
                    {
                        "element": "Ag",
                        "occu": 1
                    }
                ],
                "abc": [
                    0.666667,
                    0.333333,
                    0.75
                ],
                "xyz": [
                    1.7414241180890397,
                    1.00540957125609,
                    9.2008838025
                ],
                "label": "Ag",
                "properties": {}
            },
            {
                "species": [
                    {
                        "element": "Ag",
                        "occu": 1
                    }
                ],
                "abc": [
                    0.333333,
                    0.666667,
                    0.25
                ],
                "xyz": [
                    -1.7380890400264803e-06,
                    2.01082215874391,
                    3.0669612675
                ],
                "label": "Ag",
                "properties": {}
            },
            {
                "species": [
                    {
                        "element": "O",
                        "occu": 1
                    }
                ],
                "abc": [
                    0.333333,
                    0.666667,
                    0.41539578
                ],
                "xyz": [
                    -1.7380890400264803e-06,
                    2.01082215874391,
                    5.096011071771804
                ],
                "label": "O",
                "properties": {}
            },
            {
                "species": [
                    {
                        "element": "O",
                        "occu": 1
                    }
                ],
                "abc": [
                    0.666667,
                    0.333333,
                    0.91539578
                ],
                "xyz": [
                    1.7414241180890397,
                    1.00540957125609,
                    11.229933606771805
                ],
                "label": "O",
                "properties": {}
            },
            {
                "species": [
                    {
                        "element": "O",
                        "occu": 1
                    }
                ],
                "abc": [
                    0.333333,
                    0.666667,
                    0.08460422
                ],
                "xyz": [
                    -1.7380890400264803e-06,
                    2.01082215874391,
                    1.0379114632281954
                ],
                "label": "O",
                "properties": {}
            },
            {
                "species": [
                    {
                        "element": "O",
                        "occu": 1
                    }
                ],
                "abc": [
                    0.666667,
                    0.333333,
                    0.58460422
                ],
                "xyz": [
                    1.7414241180890397,
                    1.00540957125609,
                    7.171833998228196
                ],
                "label": "O",
                "properties": {}
            }
        ]
    },
    "spacegroup": {
        "source": "spglib",
        "symbol": "P6_3/mmc",
        "number": 194,
        "point_group": "6/mmm",
        "crystal_system": "hexagonal",
        "hall": "-P 6c 2c"
    },
    "dielectric": {
        "epsilon_ionic": [
            [
                6.6850873,
                -6.4e-07,
                -0.0
            ],
            [
                -6.4e-07,
                6.6850289,
                0.0
            ],
            [
                -0.0,
                0.0,
                3.07663987
            ]
        ],
        "epsilon_ionic_avg": 5.482252023333333,
        "epsilon_ionic_eig": [
            6.685087307012856,
            6.685028892987144,
            3.07663987
        ],
        "epsilon_electronic": [
            [
                4.66916327,
                7.7e-07,
                0.0
            ],
            [
                7.7e-07,
                4.66916251,
                0.0
            ],
            [
                0.0,
                0.0,
                4.60740928
            ]
        ],
        "epsilon_electronic_avg": 4.648578353333334,
        "epsilon_electronic_eig": [
            4.66916374866175,
            4.66916203133825,
            4.60740928
        ]
    },
    "phonon": {
        "lowest_freq": -0.025019792597352514,
        "frequency": [
            -0.025019792597352514,
            -0.02501978795742303,
            -0.0017129026332929546,
            1.0153582738512312,
            1.015358461599822,
            1.993766207278014,
            1.993766575024405,
            2.6357639101710353,
            2.6357643969750946,
            4.885040541732748,
            5.097115166085925,
            6.897354819644559,
            8.96466896617265,
            8.964670615559442,
            9.423196876777805,
            9.423198614490335,
            11.132856596251353,
            11.132858648861122,
            11.487453814868896,
            11.487455942408321,
            15.52844941319656,
            17.863547320046813,
            17.947413217579562,
            19.202150148358033
        ]
    },
    "born_effective_charge": {
        "avg_abs_trace": 2.3067737500000005,
        "tensors": [
            [
                [
                    4.21308,
                    -0.0,
                    0.0
                ],
                [
                    0.0,
                    4.21305,
                    3e-05
                ],
                [
                    0.0,
                    0.0,
                    3.13811
                ]
            ],
            [
                [
                    4.21308,
                    -0.0,
                    0.0
                ],
                [
                    0.0,
                    4.21305,
                    -3e-05
                ],
                [
                    0.0,
                    -0.0,
                    3.13811
                ]
            ],
            [
                [
                    0.31583,
                    7e-05,
                    0.0
                ],
                [
                    0.0,
                    0.31582,
                    -0.0
                ],
                [
                    0.0,
                    -0.0,
                    1.64473
                ]
            ],
            [
                [
                    0.31583,
                    -7e-05,
                    0.0
                ],
                [
                    0.0,
                    0.31587,
                    -0.0
                ],
                [
                    -0.0,
                    0.0,
                    1.64473
                ]
            ],
            [
                [
                    -2.26445,
                    -0.00048,
                    -1e-05
                ],
                [
                    -0.0,
                    -2.26435,
                    4e-05
                ],
                [
                    -0.0,
                    0.0,
                    -2.39141
                ]
            ],
            [
                [
                    -2.26445,
                    0.00048,
                    -1e-05
                ],
                [
                    -0.0,
                    -2.26454,
                    2e-05
                ],
                [
                    0.0,
                    -0.0,
                    -2.39141
                ]
            ],
            [
                [
                    -2.26445,
                    -0.00048,
                    1e-05
                ],
                [
                    -0.0,
                    -2.26435,
                    -4e-05
                ],
                [
                    0.0,
                    -0.0,
                    -2.39144
                ]
            ],
            [
                [
                    -2.26445,
                    0.00048,
                    1e-05
                ],
                [
                    -0.0,
                    -2.26454,
                    -2e-05
                ],
                [
                    -0.0,
                    0.0,
                    -2.39144
                ]
            ]
        ]
    },
    "band_gap": 2.8758,
    "is_direct": false,
    "formula": "YAgO2"
}