{
    "mp_id": "mp-3982",
    "nelements": 3,
    "nsites": 8,
    "elements": [
        "Cu",
        "K",
        "O"
    ],
    "structure": {
        "@module": "pymatgen.core.structure",
        "@class": "Structure",
        "charge": null,
        "lattice": {
            "matrix": [
                [
                    2.26178576,
                    -5.77305575,
                    0.0
                ],
                [
                    2.26178576,
                    5.77305575,
                    0.0
                ],
                [
                    0.0,
                    0.0,
                    5.36584994
                ]
            ],
            "a": 6.200310275844818,
            "b": 6.200310275844818,
            "c": 5.36584994,
            "alpha": 90.0,
            "beta": 90.0,
            "gamma": 137.21118564235087,
            "volume": 140.1282620689957
        },
        "sites": [
            {
                "species": [
                    {
                        "element": "K",
                        "occu": 1
                    }
                ],
                "abc": [
                    0.69504105,
                    0.30495895,
                    0.25
                ],
                "xyz": [
                    2.26178576,
                    -2.2519657103770756,
                    1.341462485
                ],
                "label": "K",
                "properties": {}
            },
            {
                "species": [
                    {
                        "element": "K",
                        "occu": 1
                    }
                ],
                "abc": [
                    0.30495895,
                    0.69504105,
                    0.75
                ],
                "xyz": [
                    2.26178576,
                    2.2519657103770756,
                    4.024387455
                ],
                "label": "K",
                "properties": {}
            },
            {
                "species": [
                    {
                        "element": "Cu",
                        "occu": 1
                    }
                ],
                "abc": [
                    0.00233464,
                    0.99766536,
                    0.75
                ],
                "xyz": [
                    2.26178576,
                    5.74609973624764,
                    4.024387455
                ],
                "label": "Cu",
                "properties": {}
            },
            {
                "species": [
                    {
                        "element": "Cu",
                        "occu": 1
                    }
                ],
                "abc": [
                    0.99766536,
                    0.00233464,
                    0.25
                ],
                "xyz": [
                    2.26178576,
                    -5.74609973624764,
                    1.341462485
                ],
                "label": "Cu",
                "properties": {}
            },
            {
                "species": [
                    {
                        "element": "O",
                        "occu": 1
                    }
                ],
                "abc": [
                    0.10497566,
                    0.89502434,
                    0.49548415
                ],
                "xyz": [
                    2.26178576,
                    4.56099507485391,
                    2.658693596548451
                ],
                "label": "O",
                "properties": {}
            },
            {
                "species": [
                    {
                        "element": "O",
                        "occu": 1
                    }
                ],
                "abc": [
                    0.89502434,
                    0.10497566,
                    0.50451585
                ],
                "xyz": [
                    2.26178576,
                    -4.56099507485391,
                    2.7071563434515493
                ],
                "label": "O",
                "properties": {}
            },
            {
                "species": [
                    {
                        "element": "O",
                        "occu": 1
                    }
                ],
                "abc": [
                    0.10497566,
                    0.89502434,
                    0.00451585
                ],
                "xyz": [
                    2.26178576,
                    4.56099507485391,
                    0.024231373451549004
                ],
                "label": "O",
                "properties": {}
            },
            {
                "species": [
                    {
                        "element": "O",
                        "occu": 1
                    }
                ],
                "abc": [
                    0.89502434,
                    0.10497566,
                    0.99548415
                ],
                "xyz": [
                    2.26178576,
                    -4.56099507485391,
                    5.341618566548451
                ],
                "label": "O",
                "properties": {}
            }
        ]
    },
    "spacegroup": {
        "source": "spglib",
        "symbol": "Cmcm",
        "number": 63,
        "point_group": "mmm",
        "crystal_system": "orthorhombic",
        "hall": "-C 2c 2"
    },
    "dielectric": {
        "epsilon_ionic": [
            [
                1.91456515,
                -0.0,
                -0.0
            ],
            [
                -0.0,
                1.86920037,
                -1e-08
            ],
            [
                -0.0,
                -1e-08,
                3.78773911
            ]
        ],
        "epsilon_ionic_avg": 2.5238348766666667,
        "epsilon_ionic_eig": [
            3.78773911,
            1.86920037,
            1.91456515
        ],
        "epsilon_electronic": [
            [
                2.26215918,
                0.0,
                0.0
            ],
            [
                0.0,
                2.98942479,
                0.0
            ],
            [
                0.0,
                0.0,
                6.34186617
            ]
        ],
        "epsilon_electronic_avg": 3.8644833800000007,
        "epsilon_electronic_eig": [
            2.26215918,
            2.98942479,
            6.34186617
        ]
    },
    "phonon": {
        "lowest_freq": -0.12502919089012296,
        "frequency": [
            -0.12502919089012296,
            -0.027970686889960898,
            -0.007239374551358585,
            2.7263395854160493,
            3.010952499771908,
            3.966475194072149,
            4.001190731410958,
            4.202892076321242,
            4.4198991526077345,
            4.847952033906564,
            5.227043256264841,
            5.7052608922089085,
            6.79488349436505,
            7.879181524903069,
            9.834908822034228,
            10.454114987418835,
            14.075135843442203,
            15.205124133039329,
            18.04477552110125,
            18.234013288650306,
            18.333107266669575,
            18.74260309677758,
            18.818951098226332,
            20.222816906814078
        ]
    },
    "born_effective_charge": {
        "avg_abs_trace": 1.4581516666666667,
        "tensors": [
            [
                [
                    1.17662,
                    3e-05,
                    0.0
                ],
                [
                    0.0,
                    1.43049,
                    0.0
                ],
                [
                    -0.0,
                    -0.00026,
                    1.00216
                ]
            ],
            [
                [
                    1.17662,
                    -3e-05,
                    0.0
                ],
                [
                    0.0,
                    1.43048,
                    0.0
                ],
                [
                    -0.0,
                    0.00026,
                    1.00216
                ]
            ],
            [
                [
                    0.25263,
                    -1e-05,
                    0.0
                ],
                [
                    0.0,
                    0.69908,
                    0.0
                ],
                [
                    0.0,
                    0.00017,
                    4.18796
                ]
            ],
            [
                [
                    0.25263,
                    1e-05,
                    0.0
                ],
                [
                    0.0,
                    0.69905,
                    0.0
                ],
                [
                    0.0,
                    -0.00017,
                    4.18796
                ]
            ],
            [
                [
                    -0.71462,
                    -3e-05,
                    -8e-05
                ],
                [
                    0.0,
                    -1.06467,
                    0.00852
                ],
                [
                    -0.0,
                    0.04752,
                    -2.59514
                ]
            ],
            [
                [
                    -0.71462,
                    3e-05,
                    8e-05
                ],
                [
                    0.0,
                    -1.06487,
                    0.00846
                ],
                [
                    -0.0,
                    0.04795,
                    -2.59498
                ]
            ],
            [
                [
                    -0.71462,
                    -3e-05,
                    8e-05
                ],
                [
                    0.0,
                    -1.06467,
                    -0.00852
                ],
                [
                    0.0,
                    -0.04795,
                    -2.59498
                ]
            ],
            [
                [
                    -0.71462,
                    3e-05,
                    -8e-05
                ],
                [
                    0.0,
                    -1.06487,
                    -0.00846
                ],
                [
                    0.0,
                    -0.04752,
                    -2.59514
                ]
            ]
        ]
    },
    "band_gap": 1.3195000000000001,
    "is_direct": false,
    "formula": "KCuO2"
}