{
    "mp_id": "mp-3094",
    "nelements": 3,
    "nsites": 28,
    "elements": [
        "Al",
        "O",
        "Sr"
    ],
    "structure": {
        "@module": "pymatgen.core.structure",
        "@class": "Structure",
        "charge": null,
        "lattice": {
            "matrix": [
                [
                    5.16924555,
                    0.0,
                    0.00027499
                ],
                [
                    0.0,
                    8.80145792,
                    0.0
                ],
                [
                    -0.52631919,
                    0.0,
                    8.41396218
                ]
            ],
            "a": 5.169245557314365,
            "b": 8.80145792,
            "c": 8.430407549830116,
            "alpha": 90.0,
            "beta": 93.57631540679664,
            "gamma": 90.0,
            "volume": 382.8104460914582
        },
        "sites": [
            {
                "species": [
                    {
                        "element": "Sr",
                        "occu": 1
                    }
                ],
                "abc": [
                    0.80124425,
                    0.5080703,
                    0.96904814
                ],
                "xyz": [
                    3.631799641659781,
                    4.471759365851776,
                    8.153754734715651
                ],
                "label": "Sr",
                "properties": {}
            },
            {
                "species": [
                    {
                        "element": "Sr",
                        "occu": 1
                    }
                ],
                "abc": [
                    0.19875575,
                    0.0080703,
                    0.03095186
                ],
                "xyz": [
                    1.0111267183402193,
                    0.07103040585177602,
                    0.26048243528434734
                ],
                "label": "Sr",
                "properties": {}
            },
            {
                "species": [
                    {
                        "element": "Sr",
                        "occu": 1
                    }
                ],
                "abc": [
                    0.74812193,
                    0.50052265,
                    0.51152198
                ],
                "xyz": [
                    3.598002123329116,
                    4.405329041981888,
                    4.3041323200082475
                ],
                "label": "Sr",
                "properties": {}
            },
            {
                "species": [
                    {
                        "element": "Sr",
                        "occu": 1
                    }
                ],
                "abc": [
                    0.25187807,
                    0.00052265,
                    0.48847802
                ],
                "xyz": [
                    1.0449242366708846,
                    0.004600081981888,
                    4.110104849991753
                ],
                "label": "Sr",
                "properties": {}
            },
            {
                "species": [
                    {
                        "element": "Al",
                        "occu": 1
                    }
                ],
                "abc": [
                    0.19813047,
                    0.33062583,
                    0.32052403
                ],
                "xyz": [
                    0.8554871025217728,
                    2.909989330010074,
                    2.696931550099131
                ],
                "label": "Al",
                "properties": {}
            },
            {
                "species": [
                    {
                        "element": "Al",
                        "occu": 1
                    }
                ],
                "abc": [
                    0.80186953,
                    0.83062583,
                    0.67947597
                ],
                "xyz": [
                    3.787439257478228,
                    7.310718290010074,
                    5.71730561990087
                ],
                "label": "Al",
                "properties": {}
            },
            {
                "species": [
                    {
                        "element": "Al",
                        "occu": 1
                    }
                ],
                "abc": [
                    0.77865778,
                    0.83250813,
                    0.29070302
                ],
                "xyz": [
                    3.8720706862209258,
                    7.3272852742528904,
                    2.446178338994706
                ],
                "label": "Al",
                "properties": {}
            },
            {
                "species": [
                    {
                        "element": "Al",
                        "occu": 1
                    }
                ],
                "abc": [
                    0.22134222,
                    0.33250813,
                    0.70929698
                ],
                "xyz": [
                    0.7708556737790748,
                    2.92655631425289,
                    5.968058831005295
                ],
                "label": "Al",
                "properties": {}
            },
            {
                "species": [
                    {
                        "element": "Al",
                        "occu": 1
                    }
                ],
                "abc": [
                    0.27191806,
                    0.66228337,
                    0.20054374
                ],
                "xyz": [
                    1.3000612028232625,
                    5.829059212170791,
                    1.6874422185430726
                ],
                "label": "Al",
                "properties": {}
            },
            {
                "species": [
                    {
                        "element": "Al",
                        "occu": 1
                    }
                ],
                "abc": [
                    0.72808194,
                    0.16228337,
                    0.79945626
                ],
                "xyz": [
                    3.342865157176738,
                    1.4283302521707906,
                    6.726794951456928
                ],
                "label": "Al",
                "properties": {}
            },
            {
                "species": [
                    {
                        "element": "Al",
                        "occu": 1
                    }
                ],
                "abc": [
                    0.28947118,
                    0.67010114,
                    0.80995907
                ],
                "xyz": [
                    1.0700506074126956,
                    5.897866985854029,
                    6.815044584007761
                ],
                "label": "Al",
                "properties": {}
            },
            {
                "species": [
                    {
                        "element": "Al",
                        "occu": 1
                    }
                ],
                "abc": [
                    0.71052882,
                    0.17010114,
                    0.19004093
                ],
                "xyz": [
                    3.5728757525873043,
                    1.497138025854029,
                    1.5991925859922391
                ],
                "label": "Al",
                "properties": {}
            },
            {
                "species": [
                    {
                        "element": "O",
                        "occu": 1
                    }
                ],
                "abc": [
                    0.35821972,
                    0.6123886,
                    0.0086383
                ],
                "xyz": [
                    1.847179190473269,
                    5.389912493587712,
                    0.0727808363402968
                ],
                "label": "O",
                "properties": {}
            },
            {
                "species": [
                    {
                        "element": "O",
                        "occu": 1
                    }
                ],
                "abc": [
                    0.64178028,
                    0.1123886,
                    0.9913617
                ],
                "xyz": [
                    2.795747169526731,
                    0.9891835335877122,
                    8.341456333659703
                ],
                "label": "O",
                "properties": {}
            },
            {
                "species": [
                    {
                        "element": "O",
                        "occu": 1
                    }
                ],
                "abc": [
                    0.11326479,
                    0.2810165,
                    0.51393874
                ],
                "xyz": [
                    0.3149976903327639,
                    2.47335489957568,
                    4.3242922678814555
                ],
                "label": "O",
                "properties": {}
            },
            {
                "species": [
                    {
                        "element": "O",
                        "occu": 1
                    }
                ],
                "abc": [
                    0.88673521,
                    0.7810165,
                    0.48606126
                ],
                "xyz": [
                    4.327928669667236,
                    6.874083859575681,
                    4.089944902118545
                ],
                "label": "O",
                "properties": {}
            },
            {
                "species": [
                    {
                        "element": "O",
                        "occu": 1
                    }
                ],
                "abc": [
                    0.10038237,
                    0.83742924,
                    0.79475345
                ],
                "xyz": [
                    0.10060712736724797,
                    7.370598216837581,
                    6.6870530748724475
                ],
                "label": "O",
                "properties": {}
            },
            {
                "species": [
                    {
                        "element": "O",
                        "occu": 1
                    }
                ],
                "abc": [
                    0.89961763,
                    0.33742924,
                    0.20524655
                ],
                "xyz": [
                    4.542319232632752,
                    2.969869256837581,
                    1.7271840951275528
                ],
                "label": "O",
                "properties": {}
            },
            {
                "species": [
                    {
                        "element": "O",
                        "occu": 1
                    }
                ],
                "abc": [
                    0.06230977,
                    0.20644852,
                    0.83199039
                ],
                "xyz": [
                    -0.11579800685856062,
                    1.8170479614262784,
                    7.000352810147103
                ],
                "label": "O",
                "properties": {}
            },
            {
                "species": [
                    {
                        "element": "O",
                        "occu": 1
                    }
                ],
                "abc": [
                    0.93769023,
                    0.70644852,
                    0.16800961
                ],
                "xyz": [
                    4.75872436685856,
                    6.217776921426279,
                    1.4138843598528976
                ],
                "label": "O",
                "properties": {}
            },
            {
                "species": [
                    {
                        "element": "O",
                        "occu": 1
                    }
                ],
                "abc": [
                    0.09826704,
                    0.51779595,
                    0.73264114
                ],
                "xyz": [
                    0.1223633678661954,
                    4.557359265071424,
                    6.164441865925415
                ],
                "label": "O",
                "properties": {}
            },
            {
                "species": [
                    {
                        "element": "O",
                        "occu": 1
                    }
                ],
                "abc": [
                    0.90173296,
                    0.01779595,
                    0.26735886
                ],
                "xyz": [
                    4.520562992133805,
                    0.15663030507142403,
                    2.249795304074585
                ],
                "label": "O",
                "properties": {}
            },
            {
                "species": [
                    {
                        "element": "O",
                        "occu": 1
                    }
                ],
                "abc": [
                    0.65515666,
                    0.01061559,
                    0.66890534
                ],
                "xyz": [
                    3.034607932522388,
                    0.0934326686809728,
                    5.628324394289975
                ],
                "label": "O",
                "properties": {}
            },
            {
                "species": [
                    {
                        "element": "O",
                        "occu": 1
                    }
                ],
                "abc": [
                    0.34484334,
                    0.51061559,
                    0.33109466
                ],
                "xyz": [
                    1.6083184274776117,
                    4.494161628680973,
                    2.7859127757100253
                ],
                "label": "O",
                "properties": {}
            },
            {
                "species": [
                    {
                        "element": "O",
                        "occu": 1
                    }
                ],
                "abc": [
                    0.43635442,
                    0.83115014,
                    0.26438267
                ],
                "xyz": [
                    2.116473471083394,
                    7.31533298241211,
                    2.2246257795293767
                ],
                "label": "O",
                "properties": {}
            },
            {
                "species": [
                    {
                        "element": "O",
                        "occu": 1
                    }
                ],
                "abc": [
                    0.56364558,
                    0.33115014,
                    0.73561733
                ],
                "xyz": [
                    2.526452888916606,
                    2.914604022412109,
                    6.189611390470624
                ],
                "label": "O",
                "properties": {}
            },
            {
                "species": [
                    {
                        "element": "O",
                        "occu": 1
                    }
                ],
                "abc": [
                    0.5935229,
                    0.68324403,
                    0.73039483
                ],
                "xyz": [
                    2.683644794342307,
                    6.013543579136218,
                    6.1456776889498
                ],
                "label": "O",
                "properties": {}
            },
            {
                "species": [
                    {
                        "element": "O",
                        "occu": 1
                    }
                ],
                "abc": [
                    0.4064771,
                    0.18324403,
                    0.26960517
                ],
                "xyz": [
                    1.9592815656576925,
                    1.6128146191362178,
                    2.2685594810501994
                ],
                "label": "O",
                "properties": {}
            }
        ]
    },
    "spacegroup": {
        "source": "spglib",
        "symbol": "P2_1",
        "number": 4,
        "point_group": "2",
        "crystal_system": "monoclinic",
        "hall": "P 2yb"
    },
    "dielectric": {
        "epsilon_ionic": [
            [
                6.27848878,
                4.638e-05,
                -1.80435163
            ],
            [
                4.638e-05,
                6.33409367,
                8.493e-05
            ],
            [
                -1.80435163,
                8.493e-05,
                6.36130521
            ]
        ],
        "epsilon_ionic_avg": 6.324629219999999,
        "epsilon_ionic_eig": [
            4.515070282558165,
            8.124723703182859,
            6.334093674258976
        ],
        "epsilon_electronic": [
            [
                2.96071323,
                0.0,
                0.01184534
            ],
            [
                0.0,
                2.94869492,
                0.0
            ],
            [
                0.01184723,
                0.0,
                2.93025479
            ]
        ],
        "epsilon_electronic_avg": 2.9465543133333334,
        "epsilon_electronic_eig": [
            2.9647781440623673,
            2.926189875937633,
            2.94869492
        ]
    },
    "phonon": {
        "lowest_freq": -0.060707556088374005,
        "frequency": [
            -0.060707556088374005,
            -0.04808798518825925,
            -0.046192633757680714,
            2.0341356669116744,
            2.283821853839713,
            2.5993562270123776,
            3.0777553781748033,
            3.1045723915406334,
            3.1152008723266027,
            3.332690772544285,
            3.3716980666647873,
            3.4603159558280736,
            3.6621471990426153,
            3.915233906853342,
            3.9445654945588604,
            4.121412176955361,
            4.235370672290429,
            4.5611773863642755,
            4.887617351548098,
            5.094340505692282,
            5.176058901176649,
            5.546388801456552,
            5.56748749227296,
            6.477914438868098,
            6.49239923399061,
            6.77996912723974,
            6.781602345510562,
            7.056253016491692,
            7.124211057664804,
            7.546936036295033,
            7.601764238738318,
            7.991717330511481,
            8.15406076716964,
            8.57385287245021,
            8.68529730062979,
            8.814382982050104,
            9.012088709719594,
            10.083123901900594,
            10.367779316550807,
            10.462728167388,
            10.488621632110611,
            11.20268920444701,
            11.252359127791577,
            11.368636792422178,
            11.691976696898292,
            11.782430143676372,
            12.006818138602332,
            12.163241702347753,
            12.385059133804882,
            12.562155819205826,
            12.726893758064382,
            12.791261396512695,
            13.762654791357914,
            14.204000758158584,
            14.598498080522553,
            15.668115807370985,
            16.26777203316934,
            17.14189910434148,
            17.42716820227308,
            17.99477289264559,
            18.332839909897796,
            18.930561436445846,
            19.045234727479638,
            19.170687917205218,
            19.42945735922888,
            19.91393793622884,
            20.46878380003631,
            20.887503102105356,
            22.74402703574787,
            23.179495610143178,
            23.302346292064783,
            23.463282646349302,
            23.78453946950897,
            23.791528668318854,
            24.12304885484452,
            24.54965548342496,
            24.792678026526964,
            25.004178955337284,
            25.018400872979228,
            25.779441182803136,
            26.12468290061304,
            26.2718357352451,
            26.292481014831164,
            26.36802346211096
        ]
    },
    "born_effective_charge": {
        "avg_abs_trace": 2.1119865476190474,
        "tensors": [
            [
                [
                    2.40284,
                    -0.04813,
                    0.07008
                ],
                [
                    -0.05415,
                    2.37745,
                    0.05951
                ],
                [
                    0.0367,
                    0.04806,
                    2.61042
                ]
            ],
            [
                [
                    2.4028,
                    0.04825,
                    0.07004
                ],
                [
                    0.05415,
                    2.37745,
                    -0.05951
                ],
                [
                    0.03674,
                    -0.0479,
                    2.61041
                ]
            ],
            [
                [
                    2.46537,
                    -0.03327,
                    0.10619
                ],
                [
                    -0.0258,
                    2.44764,
                    0.02008
                ],
                [
                    0.12821,
                    0.01642,
                    2.53848
                ]
            ],
            [
                [
                    2.46534,
                    0.03327,
                    0.10614
                ],
                [
                    0.0258,
                    2.44764,
                    -0.02008
                ],
                [
                    0.12817,
                    -0.01639,
                    2.53849
                ]
            ],
            [
                [
                    2.40393,
                    0.02326,
                    0.05352
                ],
                [
                    0.06991,
                    2.57376,
                    0.05977
                ],
                [
                    0.00367,
                    -0.00963,
                    2.34782
                ]
            ],
            [
                [
                    2.40392,
                    -0.02326,
                    0.05352
                ],
                [
                    -0.06991,
                    2.57376,
                    -0.05977
                ],
                [
                    0.00367,
                    0.00962,
                    2.34783
                ]
            ],
            [
                [
                    2.57829,
                    -0.03104,
                    -0.05488
                ],
                [
                    -0.0312,
                    2.42406,
                    0.01545
                ],
                [
                    0.03954,
                    -0.0317,
                    2.38364
                ]
            ],
            [
                [
                    2.57829,
                    0.03103,
                    -0.05487
                ],
                [
                    0.0312,
                    2.42406,
                    -0.01545
                ],
                [
                    0.03955,
                    0.03169,
                    2.38364
                ]
            ],
            [
                [
                    2.43302,
                    0.01536,
                    0.03922
                ],
                [
                    -0.00276,
                    2.51735,
                    -0.05033
                ],
                [
                    -0.00859,
                    0.01625,
                    2.49011
                ]
            ],
            [
                [
                    2.43302,
                    -0.01537,
                    0.03922
                ],
                [
                    0.00276,
                    2.51735,
                    0.05033
                ],
                [
                    -0.0086,
                    -0.01625,
                    2.49012
                ]
            ],
            [
                [
                    2.61526,
                    -0.06844,
                    -0.00336
                ],
                [
                    -0.00463,
                    2.4174,
                    -0.03396
                ],
                [
                    0.01936,
                    -0.10141,
                    2.32492
                ]
            ],
            [
                [
                    2.61526,
                    0.06844,
                    -0.00336
                ],
                [
                    0.00463,
                    2.4174,
                    0.03396
                ],
                [
                    0.01936,
                    0.1014,
                    2.32492
                ]
            ],
            [
                [
                    -1.82925,
                    0.1625,
                    0.12764
                ],
                [
                    0.16022,
                    -1.39254,
                    -0.06252
                ],
                [
                    0.13568,
                    -0.01728,
                    -2.34031
                ]
            ],
            [
                [
                    -1.82928,
                    -0.16252,
                    0.12767
                ],
                [
                    -0.16022,
                    -1.39254,
                    0.06252
                ],
                [
                    0.13567,
                    0.01722,
                    -2.34031
                ]
            ],
            [
                [
                    -1.46785,
                    0.12788,
                    0.08454
                ],
                [
                    0.14949,
                    -1.75494,
                    -0.0829
                ],
                [
                    0.03748,
                    -0.03332,
                    -2.35488
                ]
            ],
            [
                [
                    -1.46789,
                    -0.12786,
                    0.08454
                ],
                [
                    -0.14949,
                    -1.75494,
                    0.0829
                ],
                [
                    0.03751,
                    0.03329,
                    -2.35487
                ]
            ],
            [
                [
                    -1.83687,
                    0.239,
                    -0.32795
                ],
                [
                    0.23416,
                    -1.88827,
                    -0.03596
                ],
                [
                    -0.33753,
                    -0.03463,
                    -1.76794
                ]
            ],
            [
                [
                    -1.83688,
                    -0.23902,
                    -0.32793
                ],
                [
                    -0.23416,
                    -1.88827,
                    0.03596
                ],
                [
                    -0.33751,
                    0.03462,
                    -1.76792
                ]
            ],
            [
                [
                    -2.04164,
                    -0.17424,
                    0.11096
                ],
                [
                    -0.20252,
                    -1.79492,
                    0.34234
                ],
                [
                    0.13299,
                    0.36813,
                    -1.70582
                ]
            ],
            [
                [
                    -2.04162,
                    0.17422,
                    0.11096
                ],
                [
                    0.20252,
                    -1.79492,
                    -0.34234
                ],
                [
                    0.133,
                    -0.36816,
                    -1.70584
                ]
            ],
            [
                [
                    -1.7971,
                    -0.04053,
                    -0.12596
                ],
                [
                    -0.00281,
                    -2.12956,
                    -0.26584
                ],
                [
                    -0.11665,
                    -0.28512,
                    -1.67548
                ]
            ],
            [
                [
                    -1.7971,
                    0.04055,
                    -0.12597
                ],
                [
                    0.00281,
                    -2.12956,
                    0.26584
                ],
                [
                    -0.11668,
                    0.28511,
                    -1.6755
                ]
            ],
            [
                [
                    -1.69101,
                    0.17151,
                    -0.2259
                ],
                [
                    0.17466,
                    -2.14909,
                    -0.32067
                ],
                [
                    -0.23247,
                    -0.34309,
                    -1.65838
                ]
            ],
            [
                [
                    -1.69101,
                    -0.17153,
                    -0.22592
                ],
                [
                    -0.17466,
                    -2.14909,
                    0.32067
                ],
                [
                    -0.23249,
                    0.34308,
                    -1.65842
                ]
            ],
            [
                [
                    -2.12525,
                    -0.12893,
                    -0.19331
                ],
                [
                    -0.13382,
                    -1.86234,
                    -0.17698
                ],
                [
                    -0.20085,
                    -0.17686,
                    -1.56166
                ]
            ],
            [
                [
                    -2.12526,
                    0.1289,
                    -0.19333
                ],
                [
                    0.13382,
                    -1.86234,
                    0.17698
                ],
                [
                    -0.20082,
                    0.17686,
                    -1.56166
                ]
            ],
            [
                [
                    -2.10967,
                    -0.18784,
                    0.33926
                ],
                [
                    -0.1882,
                    -1.78599,
                    0.14747
                ],
                [
                    0.36242,
                    0.17478,
                    -1.63088
                ]
            ],
            [
                [
                    -2.10965,
                    0.18782,
                    0.33924
                ],
                [
                    0.1882,
                    -1.78599,
                    -0.14747
                ],
                [
                    0.36245,
                    -0.17479,
                    -1.63091
                ]
            ]
        ]
    },
    "band_gap": 4.1875,
    "is_direct": false,
    "formula": "SrAl2O4"
}