{
    "mp_id": "mp-3635",
    "nelements": 3,
    "nsites": 16,
    "elements": [
        "B",
        "Li",
        "O"
    ],
    "structure": {
        "@module": "pymatgen.core.structure",
        "@class": "Structure",
        "charge": null,
        "lattice": {
            "matrix": [
                [
                    5.84597917,
                    0.0,
                    0.00789666
                ],
                [
                    0.0,
                    4.36952114,
                    0.0
                ],
                [
                    -2.72117784,
                    0.0,
                    5.812745
                ]
            ],
            "a": 5.845984503341849,
            "b": 4.36952114,
            "c": 6.418162764524756,
            "alpha": 90.0,
            "beta": 115.00877474886568,
            "gamma": 90.0,
            "volume": 148.57540463671597
        },
        "sites": [
            {
                "species": [
                    {
                        "element": "Li",
                        "occu": 1
                    }
                ],
                "abc": [
                    0.56633777,
                    0.2127663,
                    0.65554517
                ],
                "xyz": [
                    1.5269438168812177,
                    0.9296868457295819,
                    3.814989086006498
                ],
                "label": "Li",
                "properties": {}
            },
            {
                "species": [
                    {
                        "element": "Li",
                        "occu": 1
                    }
                ],
                "abc": [
                    0.43366223,
                    0.7127663,
                    0.84445483
                ],
                "xyz": [
                    0.2372685931187819,
                    3.1144474157295816,
                    4.912025073993502
                ],
                "label": "Li",
                "properties": {}
            },
            {
                "species": [
                    {
                        "element": "Li",
                        "occu": 1
                    }
                ],
                "abc": [
                    0.43366223,
                    0.7872337,
                    0.34445483
                ],
                "xyz": [
                    1.5978575131187818,
                    3.439834294270418,
                    2.0056525739935016
                ],
                "label": "Li",
                "properties": {}
            },
            {
                "species": [
                    {
                        "element": "Li",
                        "occu": 1
                    }
                ],
                "abc": [
                    0.56633777,
                    0.2872337,
                    0.15554517
                ],
                "xyz": [
                    2.8875327368812176,
                    1.255073724270418,
                    0.9086165860064982
                ],
                "label": "Li",
                "properties": {}
            },
            {
                "species": [
                    {
                        "element": "B",
                        "occu": 1
                    }
                ],
                "abc": [
                    0.87522308,
                    0.67670765,
                    0.7272527
                ],
                "xyz": [
                    3.1375519634630757,
                    2.956888382274721,
                    4.234245834748412
                ],
                "label": "B",
                "properties": {}
            },
            {
                "species": [
                    {
                        "element": "B",
                        "occu": 1
                    }
                ],
                "abc": [
                    0.12477692,
                    0.17670765,
                    0.7727473
                ],
                "xyz": [
                    -1.373339553463076,
                    0.7721278122747209,
                    4.492768325251587
                ],
                "label": "B",
                "properties": {}
            },
            {
                "species": [
                    {
                        "element": "B",
                        "occu": 1
                    }
                ],
                "abc": [
                    0.12477692,
                    0.32329235,
                    0.2727473
                ],
                "xyz": [
                    -0.012750633463075811,
                    1.4126327577252789,
                    1.5863958252515873
                ],
                "label": "B",
                "properties": {}
            },
            {
                "species": [
                    {
                        "element": "B",
                        "occu": 1
                    }
                ],
                "abc": [
                    0.87522308,
                    0.82329235,
                    0.2272527
                ],
                "xyz": [
                    4.498140883463075,
                    3.5973933277252788,
                    1.3278733347484128
                ],
                "label": "B",
                "properties": {}
            },
            {
                "species": [
                    {
                        "element": "O",
                        "occu": 1
                    }
                ],
                "abc": [
                    0.91497923,
                    0.35703583,
                    0.74083699
                ],
                "xyz": [
                    3.3330003193223376,
                    1.5600756069224462,
                    4.3135217893239215
                ],
                "label": "O",
                "properties": {}
            },
            {
                "species": [
                    {
                        "element": "O",
                        "occu": 1
                    }
                ],
                "abc": [
                    0.08502077,
                    0.85703583,
                    0.75916301
                ],
                "xyz": [
                    -1.5687879093223378,
                    3.7448361769224463,
                    4.413492370676078
                ],
                "label": "O",
                "properties": {}
            },
            {
                "species": [
                    {
                        "element": "O",
                        "occu": 1
                    }
                ],
                "abc": [
                    0.08502077,
                    0.64296417,
                    0.25916301
                ],
                "xyz": [
                    -0.20819898932233766,
                    2.8094455330775534,
                    1.5071198706760782
                ],
                "label": "O",
                "properties": {}
            },
            {
                "species": [
                    {
                        "element": "O",
                        "occu": 1
                    }
                ],
                "abc": [
                    0.91497923,
                    0.14296417,
                    0.24083699
                ],
                "xyz": [
                    4.693589239322337,
                    0.6246849630775537,
                    1.4071492893239217
                ],
                "label": "O",
                "properties": {}
            },
            {
                "species": [
                    {
                        "element": "O",
                        "occu": 1
                    }
                ],
                "abc": [
                    0.64380343,
                    0.7768617,
                    0.68228585
                ],
                "xyz": [
                    1.9070403057889889,
                    3.394513621006338,
                    3.9710375599517933
                ],
                "label": "O",
                "properties": {}
            },
            {
                "species": [
                    {
                        "element": "O",
                        "occu": 1
                    }
                ],
                "abc": [
                    0.35619657,
                    0.2768617,
                    0.81771415
                ],
                "xyz": [
                    -0.14282789578898925,
                    1.209753051006338,
                    4.755976600048205
                ],
                "label": "O",
                "properties": {}
            },
            {
                "species": [
                    {
                        "element": "O",
                        "occu": 1
                    }
                ],
                "abc": [
                    0.35619657,
                    0.2231383,
                    0.31771415
                ],
                "xyz": [
                    1.2177610242110108,
                    0.975007518993662,
                    1.849604100048206
                ],
                "label": "O",
                "properties": {}
            },
            {
                "species": [
                    {
                        "element": "O",
                        "occu": 1
                    }
                ],
                "abc": [
                    0.64380343,
                    0.7231383,
                    0.18228585
                ],
                "xyz": [
                    3.2676292257889887,
                    3.159768088993662,
                    1.0646650599517937
                ],
                "label": "O",
                "properties": {}
            }
        ]
    },
    "spacegroup": {
        "source": "spglib",
        "symbol": "P2_1/c",
        "number": 14,
        "point_group": "2/m",
        "crystal_system": "monoclinic",
        "hall": "-P 2ybc"
    },
    "dielectric": {
        "epsilon_ionic": [
            [
                2.22817652,
                -1e-08,
                0.23381906
            ],
            [
                -1e-08,
                3.8584621,
                0.0
            ],
            [
                0.23381906,
                0.0,
                2.03557543
            ]
        ],
        "epsilon_ionic_avg": 2.707404683333334,
        "epsilon_ionic_eig": [
            1.8790021966310666,
            2.3847497533689332,
            3.858462100000002
        ],
        "epsilon_electronic": [
            [
                2.74921246,
                0.0,
                0.09395273
            ],
            [
                0.0,
                2.77337564,
                0.0
            ],
            [
                0.09395415,
                0.0,
                2.34726806
            ]
        ],
        "epsilon_electronic_avg": 2.6232853866666663,
        "epsilon_electronic_eig": [
            2.7700894746936053,
            2.3263910453063947,
            2.77337564
        ]
    },
    "phonon": {
        "lowest_freq": -0.11033925123628593,
        "frequency": [
            -0.11033925123628593,
            -0.0441366048538263,
            -0.043676232533860916,
            3.1424235140584678,
            3.4825931382016817,
            3.6812153689334908,
            4.443300980487088,
            5.396926175202851,
            5.6822919793968545,
            6.955184885569342,
            7.1382164344860675,
            8.610444687247853,
            8.954621649999751,
            9.49245192955718,
            10.24954796813504,
            10.635709056475577,
            10.665643807594808,
            11.511812157536259,
            11.917194018260732,
            12.262938261136032,
            12.304418867627431,
            12.676440375051982,
            12.70808758895844,
            13.837924379011069,
            13.952792625529623,
            14.411961536163162,
            14.471661616341684,
            15.196415584458302,
            18.38462429957141,
            18.52045300558135,
            19.185817638113317,
            19.510960601793798,
            20.103255299026802,
            20.781257498135897,
            20.864479127156166,
            21.06651073108501,
            21.12350286538457,
            21.40994275983284,
            31.66509868139019,
            31.76711135608368,
            34.04362914281235,
            34.0746255566915,
            34.94072241994238,
            35.12821121673863,
            41.574563811084914,
            41.86809063012787,
            42.84609319366881,
            43.750488735588675
        ]
    },
    "born_effective_charge": {
        "avg_abs_trace": 1.59250125,
        "tensors": [
            [
                [
                    1.15085,
                    -0.02979,
                    0.07794
                ],
                [
                    0.02721,
                    1.036,
                    -0.03163
                ],
                [
                    0.04838,
                    -0.00178,
                    0.97938
                ]
            ],
            [
                [
                    1.15086,
                    0.02979,
                    0.07794
                ],
                [
                    -0.02721,
                    1.036,
                    0.03163
                ],
                [
                    0.04834,
                    0.00177,
                    0.97936
                ]
            ],
            [
                [
                    1.15086,
                    -0.02979,
                    0.07794
                ],
                [
                    0.02728,
                    1.03602,
                    -0.03161
                ],
                [
                    0.04834,
                    -0.00177,
                    0.97936
                ]
            ],
            [
                [
                    1.15085,
                    0.02979,
                    0.07794
                ],
                [
                    -0.02728,
                    1.03602,
                    0.03161
                ],
                [
                    0.04838,
                    0.00178,
                    0.97938
                ]
            ],
            [
                [
                    2.59417,
                    -0.28068,
                    0.3136
                ],
                [
                    0.27466,
                    2.83,
                    -0.05691
                ],
                [
                    0.29227,
                    -0.1385,
                    0.96469
                ]
            ],
            [
                [
                    2.5942,
                    0.28068,
                    0.31357
                ],
                [
                    -0.27466,
                    2.83,
                    0.05691
                ],
                [
                    0.29222,
                    0.13852,
                    0.96474
                ]
            ],
            [
                [
                    2.5942,
                    -0.28068,
                    0.31357
                ],
                [
                    0.27447,
                    2.82974,
                    -0.05692
                ],
                [
                    0.29222,
                    -0.13852,
                    0.96474
                ]
            ],
            [
                [
                    2.59417,
                    0.28068,
                    0.3136
                ],
                [
                    -0.27447,
                    2.82974,
                    0.05692
                ],
                [
                    0.29227,
                    0.1385,
                    0.96469
                ]
            ],
            [
                [
                    -1.62926,
                    0.65335,
                    -0.1824
                ],
                [
                    0.74211,
                    -2.44366,
                    0.15414
                ],
                [
                    -0.18095,
                    0.13469,
                    -0.71631
                ]
            ],
            [
                [
                    -1.62927,
                    -0.65329,
                    -0.18248
                ],
                [
                    -0.74211,
                    -2.44366,
                    -0.15414
                ],
                [
                    -0.18099,
                    -0.13477,
                    -0.71629
                ]
            ],
            [
                [
                    -1.62927,
                    0.65329,
                    -0.18248
                ],
                [
                    0.74144,
                    -2.4433,
                    0.15409
                ],
                [
                    -0.18099,
                    0.13477,
                    -0.71629
                ]
            ],
            [
                [
                    -1.62926,
                    -0.65335,
                    -0.1824
                ],
                [
                    -0.74144,
                    -2.4433,
                    -0.15409
                ],
                [
                    -0.18095,
                    -0.13469,
                    -0.71631
                ]
            ],
            [
                [
                    -2.11577,
                    0.30474,
                    -0.20913
                ],
                [
                    0.1949,
                    -1.4224,
                    0.08088
                ],
                [
                    -0.1596,
                    0.07733,
                    -1.2278
                ]
            ],
            [
                [
                    -2.11579,
                    -0.30477,
                    -0.20903
                ],
                [
                    -0.1949,
                    -1.4224,
                    -0.08088
                ],
                [
                    -0.15966,
                    -0.07735,
                    -1.22777
                ]
            ],
            [
                [
                    -2.11579,
                    0.30477,
                    -0.20903
                ],
                [
                    0.19491,
                    -1.4224,
                    0.08076
                ],
                [
                    -0.15966,
                    0.07735,
                    -1.22777
                ]
            ],
            [
                [
                    -2.11577,
                    -0.30474,
                    -0.20913
                ],
                [
                    -0.19491,
                    -1.4224,
                    -0.08076
                ],
                [
                    -0.1596,
                    -0.07733,
                    -1.2278
                ]
            ]
        ]
    },
    "band_gap": 5.5006,
    "is_direct": false,
    "formula": "LiBO2"
}