{
    "mp_id": "mp-3349",
    "nelements": 3,
    "nsites": 12,
    "elements": [
        "O",
        "Sr",
        "Ti"
    ],
    "structure": {
        "@module": "pymatgen.core.structure",
        "@class": "Structure",
        "charge": null,
        "lattice": {
            "matrix": [
                [
                    -1.96463031,
                    1.96463031,
                    10.16419527
                ],
                [
                    1.96463031,
                    -1.96463031,
                    10.16419527
                ],
                [
                    1.96463031,
                    1.96463031,
                    -10.16419527
                ]
            ],
            "a": 10.537096848593153,
            "b": 10.537096848593153,
            "c": 10.537096848593153,
            "alpha": 158.50876154851596,
            "beta": 158.50876154851596,
            "gamma": 30.576898246138867,
            "volume": 156.92591558900153
        },
        "sites": [
            {
                "species": [
                    {
                        "element": "Sr",
                        "occu": 1
                    }
                ],
                "abc": [
                    0.31555176,
                    0.31555176,
                    0.0
                ],
                "xyz": [
                    0.0,
                    0.0,
                    6.414659412864351
                ],
                "label": "Sr",
                "properties": {}
            },
            {
                "species": [
                    {
                        "element": "Sr",
                        "occu": 1
                    }
                ],
                "abc": [
                    0.5,
                    0.5,
                    0.0
                ],
                "xyz": [
                    0.0,
                    0.0,
                    10.16419527
                ],
                "label": "Sr",
                "properties": {}
            },
            {
                "species": [
                    {
                        "element": "Sr",
                        "occu": 1
                    }
                ],
                "abc": [
                    0.68444824,
                    0.68444824,
                    0.0
                ],
                "xyz": [
                    0.0,
                    0.0,
                    13.913731127135652
                ],
                "label": "Sr",
                "properties": {}
            },
            {
                "species": [
                    {
                        "element": "Ti",
                        "occu": 1
                    }
                ],
                "abc": [
                    0.09813264,
                    0.09813264,
                    0.0
                ],
                "xyz": [
                    0.0,
                    0.0,
                    1.9948786306412256
                ],
                "label": "Ti",
                "properties": {}
            },
            {
                "species": [
                    {
                        "element": "Ti",
                        "occu": 1
                    }
                ],
                "abc": [
                    0.90186736,
                    0.90186736,
                    0.0
                ],
                "xyz": [
                    0.0,
                    0.0,
                    18.333511909358776
                ],
                "label": "Ti",
                "properties": {}
            },
            {
                "species": [
                    {
                        "element": "O",
                        "occu": 1
                    }
                ],
                "abc": [
                    0.40336674,
                    0.90336674,
                    0.5
                ],
                "xyz": [
                    1.96463031,
                    1.1102230246251565e-16,
                    8.199796621566637
                ],
                "label": "O",
                "properties": {}
            },
            {
                "species": [
                    {
                        "element": "O",
                        "occu": 1
                    }
                ],
                "abc": [
                    0.80482023,
                    0.80482023,
                    0.0
                ],
                "xyz": [
                    0.0,
                    0.0,
                    16.360699949932627
                ],
                "label": "O",
                "properties": {}
            },
            {
                "species": [
                    {
                        "element": "O",
                        "occu": 1
                    }
                ],
                "abc": [
                    0.0,
                    0.0,
                    0.0
                ],
                "xyz": [
                    0.0,
                    0.0,
                    0.0
                ],
                "label": "O",
                "properties": {}
            },
            {
                "species": [
                    {
                        "element": "O",
                        "occu": 1
                    }
                ],
                "abc": [
                    0.09663326,
                    0.59663326,
                    0.5
                ],
                "xyz": [
                    1.96463031,
                    -1.1102230246251565e-16,
                    1.9643986484333613
                ],
                "label": "O",
                "properties": {}
            },
            {
                "species": [
                    {
                        "element": "O",
                        "occu": 1
                    }
                ],
                "abc": [
                    0.59663326,
                    0.09663326,
                    0.5
                ],
                "xyz": [
                    -1.1102230246251565e-16,
                    1.96463031,
                    1.9643986484333613
                ],
                "label": "O",
                "properties": {}
            },
            {
                "species": [
                    {
                        "element": "O",
                        "occu": 1
                    }
                ],
                "abc": [
                    0.90336674,
                    0.40336674,
                    0.5
                ],
                "xyz": [
                    1.1102230246251565e-16,
                    1.96463031,
                    8.199796621566637
                ],
                "label": "O",
                "properties": {}
            },
            {
                "species": [
                    {
                        "element": "O",
                        "occu": 1
                    }
                ],
                "abc": [
                    0.19517977,
                    0.19517977,
                    0.0
                ],
                "xyz": [
                    0.0,
                    0.0,
                    3.967690590067376
                ],
                "label": "O",
                "properties": {}
            }
        ]
    },
    "spacegroup": {
        "source": "spglib",
        "symbol": "I4/mmm",
        "number": 139,
        "point_group": "4/mmm",
        "crystal_system": "tetragonal",
        "hall": "-I 4 2"
    },
    "dielectric": {
        "epsilon_ionic": [
            [
                38.14193912,
                0.0,
                0.0
            ],
            [
                0.0,
                38.14202057,
                0.0
            ],
            [
                0.0,
                0.0,
                16.06728833
            ]
        ],
        "epsilon_ionic_avg": 30.78374934,
        "epsilon_ionic_eig": [
            38.14193912,
            38.14202057,
            16.06728833
        ],
        "epsilon_electronic": [
            [
                5.35495935,
                0.0,
                0.0
            ],
            [
                0.0,
                5.35495935,
                0.0
            ],
            [
                0.0,
                0.0,
                5.19043653
            ]
        ],
        "epsilon_electronic_avg": 5.30011841,
        "epsilon_electronic_eig": [
            5.35495935,
            5.35495935,
            5.19043653
        ]
    },
    "phonon": {
        "lowest_freq": -0.011396195078102618,
        "frequency": [
            -0.011396195078102618,
            -0.0061248048742377605,
            -0.0061248048742377605,
            2.6202434167790014,
            2.6202434167790014,
            2.68901420754029,
            2.68901420754029,
            3.9391032227942335,
            3.9391032227942335,
            4.670539950890399,
            4.729726902082845,
            4.729726902082845,
            5.408807015417087,
            5.684421434001328,
            6.551033625954031,
            6.551033625954031,
            7.37814896120159,
            7.394514530899595,
            7.394514530899595,
            8.043575788936275,
            8.09030461034513,
            8.09030461034513,
            8.283723459242953,
            8.283723459242953,
            8.350652891234995,
            8.350652891234995,
            8.588547909585259,
            11.032622600505578,
            14.062286932165062,
            15.254739106972613,
            17.636003720454045,
            17.636003720454045,
            17.839150842547724,
            17.839150842547724,
            19.22655416210572,
            20.997590862286792
        ]
    },
    "born_effective_charge": {
        "avg_abs_trace": 3.387905277777778,
        "tensors": [
            [
                [
                    2.33675,
                    -0.0,
                    4e-05
                ],
                [
                    -0.0,
                    2.33675,
                    0.00018
                ],
                [
                    0.0,
                    0.0,
                    2.90983
                ]
            ],
            [
                [
                    2.55778,
                    0.0,
                    -0.0
                ],
                [
                    0.0,
                    2.55779,
                    0.0
                ],
                [
                    -0.0,
                    -0.0,
                    2.2241
                ]
            ],
            [
                [
                    2.33675,
                    -0.0,
                    -4e-05
                ],
                [
                    -0.0,
                    2.33675,
                    -0.00018
                ],
                [
                    0.0,
                    0.0,
                    2.90967
                ]
            ],
            [
                [
                    6.76804,
                    0.0,
                    4e-05
                ],
                [
                    0.0,
                    6.76804,
                    0.00017
                ],
                [
                    -0.0,
                    -0.0,
                    5.70206
                ]
            ],
            [
                [
                    6.76804,
                    0.0,
                    -4e-05
                ],
                [
                    0.0,
                    6.76804,
                    -0.00017
                ],
                [
                    -0.0,
                    -0.0,
                    5.70191
                ]
            ],
            [
                [
                    -1.94205,
                    0.0,
                    0.0
                ],
                [
                    0.0,
                    -5.4818,
                    9e-05
                ],
                [
                    0.0,
                    -0.0,
                    -1.61925
                ]
            ],
            [
                [
                    -1.97894,
                    -0.0,
                    -2e-05
                ],
                [
                    -0.0,
                    -1.97895,
                    0.00025
                ],
                [
                    0.0,
                    0.0,
                    -4.10342
                ]
            ],
            [
                [
                    -1.96176,
                    0.0,
                    -0.0
                ],
                [
                    0.0,
                    -1.96177,
                    0.0
                ],
                [
                    -0.0,
                    -0.0,
                    -4.76379
                ]
            ],
            [
                [
                    -5.4818,
                    -0.0,
                    2e-05
                ],
                [
                    0.0,
                    -1.94205,
                    6e-05
                ],
                [
                    -0.0,
                    0.0,
                    -1.61924
                ]
            ],
            [
                [
                    -1.94205,
                    0.0,
                    -0.0
                ],
                [
                    0.0,
                    -5.4818,
                    -9e-05
                ],
                [
                    0.0,
                    -0.0,
                    -1.61924
                ]
            ],
            [
                [
                    -5.4818,
                    -0.0,
                    -2e-05
                ],
                [
                    0.0,
                    -1.94205,
                    -6e-05
                ],
                [
                    -0.0,
                    0.0,
                    -1.61925
                ]
            ],
            [
                [
                    -1.97894,
                    -0.0,
                    2e-05
                ],
                [
                    -0.0,
                    -1.97895,
                    -0.00025
                ],
                [
                    0.0,
                    0.0,
                    -4.10339
                ]
            ]
        ]
    },
    "band_gap": 2.1723,
    "is_direct": false,
    "formula": "Sr3Ti2O7"
}