{
    "mp_id": "mp-3081",
    "nelements": 3,
    "nsites": 28,
    "elements": [
        "Al",
        "Be",
        "O"
    ],
    "structure": {
        "@module": "pymatgen.core.structure",
        "@class": "Structure",
        "charge": null,
        "lattice": {
            "matrix": [
                [
                    9.42345453,
                    0.0,
                    0.0
                ],
                [
                    0.0,
                    5.48729731,
                    0.0
                ],
                [
                    0.0,
                    0.0,
                    4.43534969
                ]
            ],
            "a": 9.42345453,
            "b": 5.48729731,
            "c": 4.43534969,
            "alpha": 90.0,
            "beta": 90.0,
            "gamma": 90.0,
            "volume": 229.34881305908465
        },
        "sites": [
            {
                "species": [
                    {
                        "element": "Be",
                        "occu": 1
                    }
                ],
                "abc": [
                    0.40745525,
                    0.25,
                    0.06692804
                ],
                "xyz": [
                    3.839636021384783,
                    1.3718243275,
                    0.2968492614663076
                ],
                "label": "Be",
                "properties": {}
            },
            {
                "species": [
                    {
                        "element": "Be",
                        "occu": 1
                    }
                ],
                "abc": [
                    0.59254475,
                    0.75,
                    0.93307196
                ],
                "xyz": [
                    5.5838185086152174,
                    4.1154729825,
                    4.138500428533693
                ],
                "label": "Be",
                "properties": {}
            },
            {
                "species": [
                    {
                        "element": "Be",
                        "occu": 1
                    }
                ],
                "abc": [
                    0.90745525,
                    0.25,
                    0.43307196
                ],
                "xyz": [
                    8.551363286384783,
                    1.3718243275,
                    1.9208255835336923
                ],
                "label": "Be",
                "properties": {}
            },
            {
                "species": [
                    {
                        "element": "Be",
                        "occu": 1
                    }
                ],
                "abc": [
                    0.09254475,
                    0.75,
                    0.56692804
                ],
                "xyz": [
                    0.8720912436152175,
                    4.1154729825,
                    2.5145241064663075
                ],
                "label": "Be",
                "properties": {}
            },
            {
                "species": [
                    {
                        "element": "Al",
                        "occu": 1
                    }
                ],
                "abc": [
                    0.77254397,
                    0.75,
                    0.49473586
                ],
                "xyz": [
                    7.280032973720685,
                    4.1154729825,
                    2.1943265432828833
                ],
                "label": "Al",
                "properties": {}
            },
            {
                "species": [
                    {
                        "element": "Al",
                        "occu": 1
                    }
                ],
                "abc": [
                    0.72745603,
                    0.25,
                    0.99473586
                ],
                "xyz": [
                    6.855148821279316,
                    1.3718243275,
                    4.412001388282883
                ],
                "label": "Al",
                "properties": {}
            },
            {
                "species": [
                    {
                        "element": "Al",
                        "occu": 1
                    }
                ],
                "abc": [
                    0.22745603,
                    0.25,
                    0.50526414
                ],
                "xyz": [
                    2.143421556279316,
                    1.3718243275,
                    2.2410231467171164
                ],
                "label": "Al",
                "properties": {}
            },
            {
                "species": [
                    {
                        "element": "Al",
                        "occu": 1
                    }
                ],
                "abc": [
                    0.27254397,
                    0.75,
                    0.00526414
                ],
                "xyz": [
                    2.5683057087206844,
                    4.1154729825,
                    0.023348301717116597
                ],
                "label": "Al",
                "properties": {}
            },
            {
                "species": [
                    {
                        "element": "Al",
                        "occu": 1
                    }
                ],
                "abc": [
                    0.5,
                    0.5,
                    0.5
                ],
                "xyz": [
                    4.711727265,
                    2.743648655,
                    2.217674845
                ],
                "label": "Al",
                "properties": {}
            },
            {
                "species": [
                    {
                        "element": "Al",
                        "occu": 1
                    }
                ],
                "abc": [
                    0.0,
                    0.5,
                    0.0
                ],
                "xyz": [
                    0.0,
                    2.743648655,
                    0.0
                ],
                "label": "Al",
                "properties": {}
            },
            {
                "species": [
                    {
                        "element": "Al",
                        "occu": 1
                    }
                ],
                "abc": [
                    0.5,
                    0.0,
                    0.5
                ],
                "xyz": [
                    4.711727265,
                    0.0,
                    2.217674845
                ],
                "label": "Al",
                "properties": {}
            },
            {
                "species": [
                    {
                        "element": "Al",
                        "occu": 1
                    }
                ],
                "abc": [
                    0.0,
                    0.0,
                    0.0
                ],
                "xyz": [
                    0.0,
                    0.0,
                    0.0
                ],
                "label": "Al",
                "properties": {}
            },
            {
                "species": [
                    {
                        "element": "O",
                        "occu": 1
                    }
                ],
                "abc": [
                    0.66349815,
                    0.51564195,
                    0.75645861
                ],
                "xyz": [
                    6.25244464726412,
                    2.8294806851581544,
                    3.355158461361331
                ],
                "label": "O",
                "properties": {}
            },
            {
                "species": [
                    {
                        "element": "O",
                        "occu": 1
                    }
                ],
                "abc": [
                    0.83650185,
                    0.48435805,
                    0.25645861
                ],
                "xyz": [
                    7.882737147735881,
                    2.6578166248418453,
                    1.1374836163613307
                ],
                "label": "O",
                "properties": {}
            },
            {
                "species": [
                    {
                        "element": "O",
                        "occu": 1
                    }
                ],
                "abc": [
                    0.33650185,
                    0.01564195,
                    0.24354139
                ],
                "xyz": [
                    3.1710098827358806,
                    0.08583203015815451,
                    1.080191228638669
                ],
                "label": "O",
                "properties": {}
            },
            {
                "species": [
                    {
                        "element": "O",
                        "occu": 1
                    }
                ],
                "abc": [
                    0.16349815,
                    0.98435805,
                    0.74354139
                ],
                "xyz": [
                    1.5407173822641198,
                    5.401465279841845,
                    3.297866073638669
                ],
                "label": "O",
                "properties": {}
            },
            {
                "species": [
                    {
                        "element": "O",
                        "occu": 1
                    }
                ],
                "abc": [
                    0.83650185,
                    0.01564195,
                    0.25645861
                ],
                "xyz": [
                    7.882737147735881,
                    0.08583203015815451,
                    1.1374836163613307
                ],
                "label": "O",
                "properties": {}
            },
            {
                "species": [
                    {
                        "element": "O",
                        "occu": 1
                    }
                ],
                "abc": [
                    0.33650185,
                    0.48435805,
                    0.24354139
                ],
                "xyz": [
                    3.1710098827358806,
                    2.6578166248418453,
                    1.080191228638669
                ],
                "label": "O",
                "properties": {}
            },
            {
                "species": [
                    {
                        "element": "O",
                        "occu": 1
                    }
                ],
                "abc": [
                    0.66349815,
                    0.98435805,
                    0.75645861
                ],
                "xyz": [
                    6.25244464726412,
                    5.401465279841845,
                    3.355158461361331
                ],
                "label": "O",
                "properties": {}
            },
            {
                "species": [
                    {
                        "element": "O",
                        "occu": 1
                    }
                ],
                "abc": [
                    0.16349815,
                    0.51564195,
                    0.74354139
                ],
                "xyz": [
                    1.5407173822641198,
                    2.8294806851581544,
                    3.297866073638669
                ],
                "label": "O",
                "properties": {}
            },
            {
                "species": [
                    {
                        "element": "O",
                        "occu": 1
                    }
                ],
                "abc": [
                    0.0904192,
                    0.75,
                    0.21317195
                ],
                "xyz": [
                    0.8520612198389761,
                    4.1154729825,
                    0.9454921423491954
                ],
                "label": "O",
                "properties": {}
            },
            {
                "species": [
                    {
                        "element": "O",
                        "occu": 1
                    }
                ],
                "abc": [
                    0.4095808,
                    0.25,
                    0.71317195
                ],
                "xyz": [
                    3.8596660451610245,
                    1.3718243275,
                    3.163166987349195
                ],
                "label": "O",
                "properties": {}
            },
            {
                "species": [
                    {
                        "element": "O",
                        "occu": 1
                    }
                ],
                "abc": [
                    0.9095808,
                    0.25,
                    0.78682805
                ],
                "xyz": [
                    8.571393310161024,
                    1.3718243275,
                    3.4898575476508045
                ],
                "label": "O",
                "properties": {}
            },
            {
                "species": [
                    {
                        "element": "O",
                        "occu": 1
                    }
                ],
                "abc": [
                    0.5904192,
                    0.75,
                    0.28682805
                ],
                "xyz": [
                    5.563788484838977,
                    4.1154729825,
                    1.2721827026508044
                ],
                "label": "O",
                "properties": {}
            },
            {
                "species": [
                    {
                        "element": "O",
                        "occu": 1
                    }
                ],
                "abc": [
                    0.43330298,
                    0.75,
                    0.75951932
                ],
                "xyz": [
                    4.0832109297435,
                    4.1154729825,
                    3.3687337805110107
                ],
                "label": "O",
                "properties": {}
            },
            {
                "species": [
                    {
                        "element": "O",
                        "occu": 1
                    }
                ],
                "abc": [
                    0.06669702,
                    0.25,
                    0.25951932
                ],
                "xyz": [
                    0.6285163352565006,
                    1.3718243275,
                    1.1510589355110108
                ],
                "label": "O",
                "properties": {}
            },
            {
                "species": [
                    {
                        "element": "O",
                        "occu": 1
                    }
                ],
                "abc": [
                    0.56669702,
                    0.25,
                    0.24048068
                ],
                "xyz": [
                    5.340243600256501,
                    1.3718243275,
                    1.066615909488989
                ],
                "label": "O",
                "properties": {}
            },
            {
                "species": [
                    {
                        "element": "O",
                        "occu": 1
                    }
                ],
                "abc": [
                    0.93330298,
                    0.75,
                    0.74048068
                ],
                "xyz": [
                    8.7949381947435,
                    4.1154729825,
                    3.284290754488989
                ],
                "label": "O",
                "properties": {}
            }
        ]
    },
    "spacegroup": {
        "source": "spglib",
        "symbol": "Pnma",
        "number": 62,
        "point_group": "mmm",
        "crystal_system": "orthorhombic",
        "hall": "-P 2ac 2n"
    },
    "dielectric": {
        "epsilon_ionic": [
            [
                6.18141915,
                -0.0,
                0.0
            ],
            [
                -0.0,
                5.90161581,
                -0.0
            ],
            [
                0.0,
                -0.0,
                5.17808593
            ]
        ],
        "epsilon_ionic_avg": 5.753706963333333,
        "epsilon_ionic_eig": [
            6.18141915,
            5.90161581,
            5.17808593
        ],
        "epsilon_electronic": [
            [
                3.16919304,
                0.0,
                0.0
            ],
            [
                0.0,
                3.19229585,
                -0.0
            ],
            [
                0.0,
                -0.0,
                3.16292595
            ]
        ],
        "epsilon_electronic_avg": 3.174804946666667,
        "epsilon_electronic_eig": [
            3.16919304,
            3.19229585,
            3.16292595
        ]
    },
    "phonon": {
        "lowest_freq": -0.0562387511539487,
        "frequency": [
            -0.0562387511539487,
            -0.03190153807997655,
            -0.022193212268635007,
            4.840242590674029,
            6.039664692494073,
            6.9041957670133405,
            7.117133544591748,
            8.285596508393395,
            8.42203562251516,
            8.762759270521618,
            9.528460608160174,
            9.546423735950187,
            10.174183413041135,
            10.20733779754401,
            10.398764019627695,
            10.5863287093153,
            10.587069998942741,
            10.630694466846979,
            10.634460442585473,
            10.758245129187804,
            10.866377713990055,
            11.080788712034005,
            11.086817800298206,
            11.664096888926197,
            12.442233482006122,
            12.529895496400597,
            12.769576433940768,
            12.913378268673888,
            13.00570660105406,
            13.134786786801941,
            13.145669453007732,
            13.391037270050754,
            13.550343904751179,
            13.952570596965355,
            14.02825711335902,
            14.63359089629923,
            14.647606595500081,
            14.695502662742937,
            14.74593814700062,
            15.172051314957116,
            15.200671046803347,
            15.215793162528994,
            15.357077079053767,
            15.4062073592283,
            15.664227772465535,
            15.763992919489848,
            16.139585665849847,
            16.14081885651134,
            16.209711593028956,
            16.303836267910416,
            16.63067580656911,
            16.692986882993107,
            17.685301805629926,
            17.76043227695324,
            17.901861838491335,
            18.0259274006456,
            18.200521960496243,
            18.42367534856543,
            18.87252081464456,
            18.95075748782746,
            19.1352474138396,
            19.252338292423044,
            19.348786411139585,
            19.487630513109952,
            19.97668749793109,
            20.52550064400148,
            21.010548133846633,
            21.18485585912116,
            21.571940536251507,
            21.987376719075378,
            22.010042494706575,
            22.140587225864458,
            22.469412076022877,
            22.551847692503134,
            22.598330086853835,
            22.943050636050486,
            23.406413229479686,
            24.13469314657605,
            24.284878809287367,
            27.012347786401985,
            27.96115267068711,
            28.200708473585273,
            28.320983940671606,
            28.79797742270535
        ]
    },
    "born_effective_charge": {
        "avg_abs_trace": 2.168765238095238,
        "tensors": [
            [
                [
                    1.59338,
                    0.0,
                    0.00415
                ],
                [
                    3e-05,
                    1.68479,
                    -5e-05
                ],
                [
                    0.00817,
                    -0.0,
                    1.95633
                ]
            ],
            [
                [
                    1.59338,
                    0.0,
                    0.00417
                ],
                [
                    -3e-05,
                    1.68479,
                    5e-05
                ],
                [
                    0.00818,
                    -0.0,
                    1.95622
                ]
            ],
            [
                [
                    1.59338,
                    0.0,
                    -0.00415
                ],
                [
                    3e-05,
                    1.68479,
                    5e-05
                ],
                [
                    -0.00818,
                    -0.0,
                    1.95622
                ]
            ],
            [
                [
                    1.59338,
                    0.0,
                    -0.00417
                ],
                [
                    -3e-05,
                    1.68479,
                    -5e-05
                ],
                [
                    -0.00817,
                    -0.0,
                    1.95633
                ]
            ],
            [
                [
                    3.19191,
                    0.0,
                    -0.08948
                ],
                [
                    1e-05,
                    3.0133,
                    1e-05
                ],
                [
                    -0.08417,
                    -0.0,
                    2.88219
                ]
            ],
            [
                [
                    3.1919,
                    0.0,
                    0.08948
                ],
                [
                    -1e-05,
                    3.0133,
                    1e-05
                ],
                [
                    0.08417,
                    -0.0,
                    2.88219
                ]
            ],
            [
                [
                    3.1919,
                    0.0,
                    -0.08948
                ],
                [
                    -1e-05,
                    3.0133,
                    -1e-05
                ],
                [
                    -0.08417,
                    -0.0,
                    2.8822
                ]
            ],
            [
                [
                    3.19191,
                    0.0,
                    0.08948
                ],
                [
                    1e-05,
                    3.0133,
                    -1e-05
                ],
                [
                    0.08417,
                    -0.0,
                    2.8822
                ]
            ],
            [
                [
                    2.7359,
                    0.16113,
                    0.085
                ],
                [
                    0.16302,
                    2.93699,
                    0.14442
                ],
                [
                    0.08338,
                    0.17691,
                    2.77729
                ]
            ],
            [
                [
                    2.7359,
                    0.16113,
                    -0.085
                ],
                [
                    0.16302,
                    2.93699,
                    -0.14442
                ],
                [
                    -0.08338,
                    -0.17691,
                    2.77729
                ]
            ],
            [
                [
                    2.7359,
                    -0.16113,
                    0.085
                ],
                [
                    -0.16302,
                    2.93699,
                    -0.14442
                ],
                [
                    0.08338,
                    -0.17691,
                    2.77729
                ]
            ],
            [
                [
                    2.7359,
                    -0.16113,
                    -0.085
                ],
                [
                    -0.16302,
                    2.93699,
                    0.14442
                ],
                [
                    -0.08338,
                    0.17691,
                    2.77729
                ]
            ],
            [
                [
                    -1.84114,
                    0.12058,
                    -0.07582
                ],
                [
                    0.11367,
                    -2.04679,
                    0.15895
                ],
                [
                    -0.07168,
                    0.18025,
                    -1.80006
                ]
            ],
            [
                [
                    -1.84113,
                    0.12059,
                    0.07583
                ],
                [
                    0.11357,
                    -2.04679,
                    -0.15898
                ],
                [
                    0.07168,
                    -0.18025,
                    -1.80006
                ]
            ],
            [
                [
                    -1.84113,
                    -0.12059,
                    -0.07583
                ],
                [
                    -0.11367,
                    -2.04679,
                    -0.15895
                ],
                [
                    -0.07162,
                    -0.18016,
                    -1.80007
                ]
            ],
            [
                [
                    -1.84114,
                    -0.12058,
                    0.07582
                ],
                [
                    -0.11357,
                    -2.04679,
                    0.15898
                ],
                [
                    0.07162,
                    0.18016,
                    -1.80007
                ]
            ],
            [
                [
                    -1.84113,
                    -0.12059,
                    0.07583
                ],
                [
                    -0.11367,
                    -2.04679,
                    0.15895
                ],
                [
                    0.07168,
                    0.18025,
                    -1.80006
                ]
            ],
            [
                [
                    -1.84113,
                    0.12059,
                    -0.07583
                ],
                [
                    0.11357,
                    -2.04679,
                    0.15898
                ],
                [
                    -0.07162,
                    0.18016,
                    -1.80007
                ]
            ],
            [
                [
                    -1.84114,
                    -0.12058,
                    -0.07582
                ],
                [
                    -0.11357,
                    -2.04679,
                    -0.15898
                ],
                [
                    -0.07168,
                    -0.18025,
                    -1.80006
                ]
            ],
            [
                [
                    -1.84114,
                    0.12058,
                    0.07582
                ],
                [
                    0.11367,
                    -2.04679,
                    -0.15895
                ],
                [
                    0.07162,
                    -0.18016,
                    -1.80007
                ]
            ],
            [
                [
                    -1.76374,
                    0.0,
                    0.00425
                ],
                [
                    -4e-05,
                    -1.76327,
                    8e-05
                ],
                [
                    -0.00807,
                    -0.0,
                    -2.17006
                ]
            ],
            [
                [
                    -1.76379,
                    0.0,
                    -0.00421
                ],
                [
                    4e-05,
                    -1.76327,
                    8e-05
                ],
                [
                    0.00807,
                    -0.0,
                    -2.17006
                ]
            ],
            [
                [
                    -1.76379,
                    0.0,
                    0.00421
                ],
                [
                    4e-05,
                    -1.76327,
                    -8e-05
                ],
                [
                    -0.00815,
                    -0.0,
                    -2.16999
                ]
            ],
            [
                [
                    -1.76374,
                    0.0,
                    -0.00425
                ],
                [
                    -4e-05,
                    -1.76327,
                    -8e-05
                ],
                [
                    0.00815,
                    -0.0,
                    -2.16999
                ]
            ],
            [
                [
                    -2.07516,
                    0.0,
                    0.19641
                ],
                [
                    -3e-05,
                    -1.77825,
                    -3e-05
                ],
                [
                    0.18916,
                    0.0,
                    -1.84558
                ]
            ],
            [
                [
                    -2.07514,
                    0.0,
                    -0.19642
                ],
                [
                    3e-05,
                    -1.77825,
                    -3e-05
                ],
                [
                    -0.18916,
                    0.0,
                    -1.84558
                ]
            ],
            [
                [
                    -2.07514,
                    0.0,
                    0.19642
                ],
                [
                    3e-05,
                    -1.77825,
                    3e-05
                ],
                [
                    0.18911,
                    -0.0,
                    -1.84563
                ]
            ],
            [
                [
                    -2.07516,
                    0.0,
                    -0.19641
                ],
                [
                    -3e-05,
                    -1.77825,
                    3e-05
                ],
                [
                    -0.18911,
                    -0.0,
                    -1.84563
                ]
            ]
        ]
    },
    "band_gap": 6.267399999999999,
    "is_direct": true,
    "formula": "BeAl2O4"
}