{
    "mp_id": "mp-306",
    "nelements": 2,
    "nsites": 15,
    "elements": [
        "B",
        "O"
    ],
    "structure": {
        "@module": "pymatgen.core.structure",
        "@class": "Structure",
        "charge": null,
        "lattice": {
            "matrix": [
                [
                    4.35025624,
                    0.0,
                    0.0
                ],
                [
                    -2.17512762,
                    3.76743228,
                    0.0
                ],
                [
                    0.0,
                    0.0,
                    8.3376895
                ]
            ],
            "a": 4.35025624,
            "b": 4.350255871517544,
            "c": 8.3376895,
            "alpha": 90.0,
            "beta": 90.0,
            "gamma": 119.99999519788439,
            "volume": 136.64885937771663
        },
        "sites": [
            {
                "species": [
                    {
                        "element": "B",
                        "occu": 1
                    }
                ],
                "abc": [
                    0.23402287,
                    0.39768988,
                    0.27459895
                ],
                "xyz": [
                    0.15303320833772316,
                    1.4982696913413263,
                    2.289520782126025
                ],
                "label": "B",
                "properties": {}
            },
            {
                "species": [
                    {
                        "element": "B",
                        "occu": 1
                    }
                ],
                "abc": [
                    0.16366602,
                    0.76597713,
                    0.94126595
                ],
                "xyz": [
                    -0.9541088869703659,
                    2.8857669653037563,
                    7.847983228022525
                ],
                "label": "B",
                "properties": {}
            },
            {
                "species": [
                    {
                        "element": "B",
                        "occu": 1
                    }
                ],
                "abc": [
                    0.39768988,
                    0.23402287,
                    0.72540105
                ],
                "xyz": [
                    1.221023273806182,
                    0.8816653146962435,
                    6.048168717873975
                ],
                "label": "B",
                "properties": {}
            },
            {
                "species": [
                    {
                        "element": "B",
                        "occu": 1
                    }
                ],
                "abc": [
                    0.83633398,
                    0.60231012,
                    0.39206705
                ],
                "xyz": [
                    2.3281657374015214,
                    2.2691625886586735,
                    3.2689333260809748
                ],
                "label": "B",
                "properties": {}
            },
            {
                "species": [
                    {
                        "element": "B",
                        "occu": 1
                    }
                ],
                "abc": [
                    0.76597713,
                    0.16366602,
                    0.05873405
                ],
                "xyz": [
                    2.976202308922319,
                    0.6166006468871256,
                    0.489706271977475
                ],
                "label": "B",
                "properties": {}
            },
            {
                "species": [
                    {
                        "element": "B",
                        "occu": 1
                    }
                ],
                "abc": [
                    0.60231012,
                    0.83633398,
                    0.60793295
                ],
                "xyz": [
                    0.8010702185026211,
                    3.1508316331128743,
                    5.068756173919025
                ],
                "label": "B",
                "properties": {}
            },
            {
                "species": [
                    {
                        "element": "O",
                        "occu": 1
                    }
                ],
                "abc": [
                    0.14913145,
                    0.59791941,
                    0.37326974
                ],
                "xyz": [
                    -0.6517910022823563,
                    2.2526208860725547,
                    3.11220719186573
                ],
                "label": "O",
                "properties": {}
            },
            {
                "species": [
                    {
                        "element": "O",
                        "occu": 1
                    }
                ],
                "abc": [
                    0.55121205,
                    0.40208059,
                    0.29339626
                ],
                "xyz": [
                    1.5233370633007959,
                    1.5148113939274452,
                    2.44624691634127
                ],
                "label": "O",
                "properties": {}
            },
            {
                "species": [
                    {
                        "element": "O",
                        "occu": 1
                    }
                ],
                "abc": [
                    0.15740473,
                    0.0,
                    0.833333
                ],
                "xyz": [
                    0.6847509088880152,
                    0.0,
                    6.9480718041035
                ],
                "label": "O",
                "properties": {}
            },
            {
                "species": [
                    {
                        "element": "O",
                        "occu": 1
                    }
                ],
                "abc": [
                    0.40208059,
                    0.55121205,
                    0.70660374
                ],
                "xyz": [
                    0.5501970411985608,
                    2.076654070294974,
                    5.89144258365873
                ],
                "label": "O",
                "properties": {}
            },
            {
                "species": [
                    {
                        "element": "O",
                        "occu": 1
                    }
                ],
                "abc": [
                    0.0,
                    0.15740473,
                    0.166667
                ],
                "xyz": [
                    -0.3423753757416426,
                    0.5930116608266843,
                    1.3896176958965
                ],
                "label": "O",
                "properties": {}
            },
            {
                "species": [
                    {
                        "element": "O",
                        "occu": 1
                    }
                ],
                "abc": [
                    0.59791941,
                    0.14913145,
                    0.62673026
                ],
                "xyz": [
                    2.2767227084639696,
                    0.5618426386932059,
                    5.22548230813427
                ],
                "label": "O",
                "properties": {}
            },
            {
                "species": [
                    {
                        "element": "O",
                        "occu": 1
                    }
                ],
                "abc": [
                    0.84259527,
                    0.84259527,
                    0.5
                ],
                "xyz": [
                    1.8327530868536275,
                    3.1744206191733157,
                    4.16884475
                ],
                "label": "O",
                "properties": {}
            },
            {
                "species": [
                    {
                        "element": "O",
                        "occu": 1
                    }
                ],
                "abc": [
                    0.85086855,
                    0.44878795,
                    0.96006326
                ],
                "xyz": [
                    2.725325153489073,
                    1.690778209705026,
                    8.004709362237769
                ],
                "label": "O",
                "properties": {}
            },
            {
                "species": [
                    {
                        "element": "O",
                        "occu": 1
                    }
                ],
                "abc": [
                    0.44878795,
                    0.85086855,
                    0.03993674
                ],
                "xyz": [
                    0.10159489582995729,
                    3.2055896413067937,
                    0.33298013776222996
                ],
                "label": "O",
                "properties": {}
            }
        ]
    },
    "spacegroup": {
        "source": "spglib",
        "symbol": "P3_121",
        "number": 152,
        "point_group": "32",
        "crystal_system": "trigonal",
        "hall": "P 31 2\""
    },
    "dielectric": {
        "epsilon_ionic": [
            [
                2.8271094,
                -6.41e-06,
                0.0
            ],
            [
                -6.41e-06,
                2.82729519,
                -9.301e-05
            ],
            [
                0.0,
                -9.301e-05,
                2.63624824
            ]
        ],
        "epsilon_ionic_avg": 2.763550943333333,
        "epsilon_ionic_eig": [
            2.827109179162918,
            2.827295456118401,
            2.63624819471868
        ],
        "epsilon_electronic": [
            [
                2.90885389,
                0.0,
                -0.0
            ],
            [
                -0.0,
                2.90885357,
                -0.0
            ],
            [
                -0.0,
                0.0,
                2.84805778
            ]
        ],
        "epsilon_electronic_avg": 2.8885884133333337,
        "epsilon_electronic_eig": [
            2.90885389,
            2.90885357,
            2.84805778
        ]
    },
    "phonon": {
        "lowest_freq": -0.03332235526887352,
        "frequency": [
            -0.03332235526887352,
            -0.03274602901918962,
            -0.03274602722794851,
            3.219725104882296,
            3.2197251124730104,
            3.3186974052889635,
            5.521291729872381,
            6.2772937946257645,
            6.277293814092763,
            7.805167048188701,
            7.805167079501309,
            8.883719731020792,
            8.883719827309337,
            8.932777682072526,
            9.474622128860977,
            9.634931132708022,
            15.455345896116825,
            15.45534604634324,
            16.674324473540832,
            17.377854671143012,
            17.428312109546304,
            17.42831217966214,
            18.197763331918352,
            18.197763600522933,
            19.9618346532329,
            19.961834714449747,
            19.970444232211864,
            20.642898836690637,
            21.234053395664905,
            21.234053568312206,
            29.59817400594634,
            29.598174460096217,
            34.38900626448535,
            37.18898406558729,
            37.18898468991228,
            37.412019151894654,
            37.64482991607463,
            37.8276391197414,
            38.20730483848254,
            38.207305574101426,
            38.360648108424975,
            40.814824656472176,
            40.8148250456937,
            43.48886418642784,
            43.488864523617785
        ]
    },
    "born_effective_charge": {
        "avg_abs_trace": 1.9852713333333334,
        "tensors": [
            [
                [
                    3.20058,
                    -0.07442,
                    -0.09619
                ],
                [
                    0.17523,
                    1.93804,
                    0.39121
                ],
                [
                    0.32627,
                    0.82554,
                    2.30605
                ]
            ],
            [
                [
                    2.21012,
                    0.39666,
                    0.38696
                ],
                [
                    0.64627,
                    2.92859,
                    -0.11229
                ],
                [
                    0.5518,
                    -0.69533,
                    2.30605
                ]
            ],
            [
                [
                    2.21012,
                    -0.39666,
                    -0.38696
                ],
                [
                    -0.64629,
                    2.92861,
                    -0.11234
                ],
                [
                    -0.55179,
                    -0.69535,
                    2.30607
                ]
            ],
            [
                [
                    3.20058,
                    0.07442,
                    0.09619
                ],
                [
                    -0.17517,
                    1.93816,
                    0.39133
                ],
                [
                    -0.3263,
                    0.82554,
                    2.30607
                ]
            ],
            [
                [
                    2.29738,
                    0.69666,
                    0.29074
                ],
                [
                    0.4471,
                    2.84133,
                    -0.27896
                ],
                [
                    0.87809,
                    -0.13018,
                    2.30607
                ]
            ],
            [
                [
                    2.29738,
                    -0.69666,
                    -0.29074
                ],
                [
                    -0.44711,
                    2.84136,
                    -0.27888
                ],
                [
                    -0.87807,
                    -0.13021,
                    2.30605
                ]
            ],
            [
                [
                    -2.60918,
                    0.40079,
                    0.46088
                ],
                [
                    0.31832,
                    -1.01342,
                    -0.29879
                ],
                [
                    0.54959,
                    -0.49186,
                    -1.36144
                ]
            ],
            [
                [
                    -2.60918,
                    -0.40079,
                    -0.46088
                ],
                [
                    -0.31842,
                    -1.01343,
                    -0.2986
                ],
                [
                    -0.54953,
                    -0.49187,
                    -1.36149
                ]
            ],
            [
                [
                    -1.19132,
                    -0.0,
                    0.0
                ],
                [
                    -3e-05,
                    -1.84076,
                    0.68098
                ],
                [
                    0.0,
                    1.09193,
                    -1.88919
                ]
            ],
            [
                [
                    -1.10105,
                    0.55244,
                    0.02817
                ],
                [
                    0.46989,
                    -2.52179,
                    0.54849
                ],
                [
                    0.15116,
                    0.72189,
                    -1.36144
                ]
            ],
            [
                [
                    -1.67839,
                    -0.28127,
                    -0.58971
                ],
                [
                    -0.2813,
                    -1.35371,
                    -0.3405
                ],
                [
                    -0.94564,
                    -0.54597,
                    -1.88919
                ]
            ],
            [
                [
                    -1.72379,
                    0.82958,
                    0.48896
                ],
                [
                    0.91199,
                    -1.89883,
                    -0.24991
                ],
                [
                    0.70074,
                    -0.22997,
                    -1.36149
                ]
            ],
            [
                [
                    -1.67839,
                    0.28127,
                    0.58971
                ],
                [
                    0.28128,
                    -1.35365,
                    -0.34057
                ],
                [
                    0.94564,
                    -0.54597,
                    -1.88919
                ]
            ],
            [
                [
                    -1.10105,
                    -0.55244,
                    -0.02817
                ],
                [
                    -0.46977,
                    -2.52167,
                    0.54842
                ],
                [
                    -0.15121,
                    0.72184,
                    -1.36149
                ]
            ],
            [
                [
                    -1.72379,
                    -0.82958,
                    -0.48896
                ],
                [
                    -0.91201,
                    -1.89884,
                    -0.24958
                ],
                [
                    -0.70076,
                    -0.23003,
                    -1.36144
                ]
            ]
        ]
    },
    "band_gap": 6.3485,
    "is_direct": false,
    "formula": "B2O3"
}