{
    "mp_id": "mp-31408",
    "nelements": 3,
    "nsites": 25,
    "elements": [
        "Al",
        "B",
        "O"
    ],
    "structure": {
        "@module": "pymatgen.core.structure",
        "@class": "Structure",
        "charge": null,
        "lattice": {
            "matrix": [
                [
                    5.73677149,
                    3.3121263,
                    2.16779431
                ],
                [
                    -5.73677103,
                    3.31212708,
                    2.16779431
                ],
                [
                    -4.5e-07,
                    -6.62425338,
                    2.16779431
                ]
            ],
            "a": 6.969939736188318,
            "b": 6.96993972823187,
            "c": 6.969940101099148,
            "alpha": 110.78727802046252,
            "beta": 110.78727799081055,
            "gamma": 110.78727266965156,
            "volume": 247.14042917933818
        },
        "sites": [
            {
                "species": [
                    {
                        "element": "Al",
                        "occu": 1
                    }
                ],
                "abc": [
                    0.8032501,
                    0.08440792,
                    0.29261469
                ],
                "xyz": [
                    4.123833231184482,
                    1.0016816900159515,
                    2.5585884649862805
                ],
                "label": "Al",
                "properties": {}
            },
            {
                "species": [
                    {
                        "element": "Al",
                        "occu": 1
                    }
                ],
                "abc": [
                    0.29261469,
                    0.8032501,
                    0.08440792
                ],
                "xyz": [
                    -2.9293983303609785,
                    3.070503769379285,
                    2.55858846498628
                ],
                "label": "Al",
                "properties": {}
            },
            {
                "species": [
                    {
                        "element": "Al",
                        "occu": 1
                    }
                ],
                "abc": [
                    0.08440792,
                    0.29261469,
                    0.8032501
                ],
                "xyz": [
                    -1.194434889020775,
                    -4.072185459395236,
                    2.5585884649862805
                ],
                "label": "Al",
                "properties": {}
            },
            {
                "species": [
                    {
                        "element": "Al",
                        "occu": 1
                    }
                ],
                "abc": [
                    0.00244843,
                    0.00244843,
                    0.00244843
                ],
                "xyz": [
                    2.448430018970108e-11,
                    0.0,
                    0.0159230778672999
                ],
                "label": "Al",
                "properties": {}
            },
            {
                "species": [
                    {
                        "element": "B",
                        "occu": 1
                    }
                ],
                "abc": [
                    0.27347032,
                    0.17468567,
                    0.49962932
                ],
                "xyz": [
                    0.5667048192918426,
                    -1.825321834520742,
                    2.054603602119586
                ],
                "label": "B",
                "properties": {}
            },
            {
                "species": [
                    {
                        "element": "B",
                        "occu": 1
                    }
                ],
                "abc": [
                    0.49962932,
                    0.27347032,
                    0.17468567
                ],
                "xyz": [
                    1.2974225505947057,
                    1.403441723536317,
                    2.054603602119586
                ],
                "label": "B",
                "properties": {}
            },
            {
                "species": [
                    {
                        "element": "B",
                        "occu": 1
                    }
                ],
                "abc": [
                    0.17468567,
                    0.49962932,
                    0.27347032
                ],
                "xyz": [
                    -1.8641273604086954,
                    0.4218801109844248,
                    2.054603602119586
                ],
                "label": "B",
                "properties": {}
            },
            {
                "species": [
                    {
                        "element": "B",
                        "occu": 1
                    }
                ],
                "abc": [
                    0.52411652,
                    0.59998025,
                    0.85556254
                ],
                "xyz": [
                    -0.4352129924012858,
                    -1.9443121037497395,
                    4.291494187956526
                ],
                "label": "B",
                "properties": {}
            },
            {
                "species": [
                    {
                        "element": "B",
                        "occu": 1
                    }
                ],
                "abc": [
                    0.85556254,
                    0.52411652,
                    0.59998025
                ],
                "xyz": [
                    1.9014300491124563,
                    0.595250510000418,
                    4.291494187956526
                ],
                "label": "B",
                "properties": {}
            },
            {
                "species": [
                    {
                        "element": "B",
                        "occu": 1
                    }
                ],
                "abc": [
                    0.59998025,
                    0.85556254,
                    0.52411652
                ],
                "xyz": [
                    -1.4662170369145775,
                    1.3490615937493202,
                    4.291494187956526
                ],
                "label": "B",
                "properties": {}
            },
            {
                "species": [
                    {
                        "element": "O",
                        "occu": 1
                    }
                ],
                "abc": [
                    0.52524793,
                    0.07709008,
                    0.10471548
                ],
                "xyz": [
                    2.5709791652391676,
                    1.3013577522126032,
                    1.5327465324876424
                ],
                "label": "O",
                "properties": {}
            },
            {
                "species": [
                    {
                        "element": "O",
                        "occu": 1
                    }
                ],
                "abc": [
                    0.39444669,
                    0.68793003,
                    0.50016316
                ],
                "xyz": [
                    -1.6836467663275847,
                    0.2717614342236776,
                    3.4306209472120828
                ],
                "label": "O",
                "properties": {}
            },
            {
                "species": [
                    {
                        "element": "O",
                        "occu": 1
                    }
                ],
                "abc": [
                    0.68793003,
                    0.50016316,
                    0.39444669
                ],
                "xyz": [
                    1.0771756791565792,
                    1.3222002721148494,
                    3.430620947212083
                ],
                "label": "O",
                "properties": {}
            },
            {
                "species": [
                    {
                        "element": "O",
                        "occu": 1
                    }
                ],
                "abc": [
                    0.50016316,
                    0.39444669,
                    0.68793003
                ],
                "xyz": [
                    0.6064711029964043,
                    -1.5939617063385274,
                    3.430620947212083
                ],
                "label": "O",
                "properties": {}
            },
            {
                "species": [
                    {
                        "element": "O",
                        "occu": 1
                    }
                ],
                "abc": [
                    0.07709008,
                    0.10471548,
                    0.52524793
                ],
                "xyz": [
                    -0.15848079531229373,
                    -2.8772123172002013,
                    1.5327465324876421
                ],
                "label": "O",
                "properties": {}
            },
            {
                "species": [
                    {
                        "element": "O",
                        "occu": 1
                    }
                ],
                "abc": [
                    0.27906165,
                    0.24052655,
                    0.02791455
                ],
                "xyz": [
                    0.22106716112496447,
                    1.53602887781169,
                    1.1868733461593524
                ],
                "label": "O",
                "properties": {}
            },
            {
                "species": [
                    {
                        "element": "O",
                        "occu": 1
                    }
                ],
                "abc": [
                    0.24052655,
                    0.02791455,
                    0.27906165
                ],
                "xyz": [
                    1.2197063472948304,
                    -0.959464229156598,
                    1.1868733461593526
                ],
                "label": "O",
                "properties": {}
            },
            {
                "species": [
                    {
                        "element": "O",
                        "occu": 1
                    }
                ],
                "abc": [
                    0.825286,
                    0.01626193,
                    0.74380889
                ],
                "xyz": [
                    4.641185892266251,
                    -2.1398655093086836,
                    3.4367274937156944
                ],
                "label": "O",
                "properties": {}
            },
            {
                "species": [
                    {
                        "element": "O",
                        "occu": 1
                    }
                ],
                "abc": [
                    0.01626193,
                    0.74380889,
                    0.825286
                ],
                "xyz": [
                    -4.173770686990781,
                    -2.94945244201118,
                    3.4367274937156944
                ],
                "label": "O",
                "properties": {}
            },
            {
                "species": [
                    {
                        "element": "O",
                        "occu": 1
                    }
                ],
                "abc": [
                    0.74380889,
                    0.825286,
                    0.01626193
                ],
                "xyz": [
                    -0.46741518942190247,
                    5.089317951319862,
                    3.436727493715694
                ],
                "label": "O",
                "properties": {}
            },
            {
                "species": [
                    {
                        "element": "O",
                        "occu": 1
                    }
                ],
                "abc": [
                    0.33174453,
                    0.57772492,
                    0.87621082
                ],
                "xyz": [
                    -1.4111334169924867,
                    -2.791964350960599,
                    3.870987528785264
                ],
                "label": "O",
                "properties": {}
            },
            {
                "species": [
                    {
                        "element": "O",
                        "occu": 1
                    }
                ],
                "abc": [
                    0.57772492,
                    0.87621082,
                    0.33174453
                ],
                "xyz": [
                    -1.7123451475150526,
                    2.61805966225939,
                    3.8709875287852635
                ],
                "label": "O",
                "properties": {}
            },
            {
                "species": [
                    {
                        "element": "O",
                        "occu": 1
                    }
                ],
                "abc": [
                    0.87621082,
                    0.33174453,
                    0.57772492
                ],
                "xyz": [
                    3.123478582364341,
                    0.17390468870120923,
                    3.870987528785264
                ],
                "label": "O",
                "properties": {}
            },
            {
                "species": [
                    {
                        "element": "O",
                        "occu": 1
                    }
                ],
                "abc": [
                    0.02791455,
                    0.27906165,
                    0.24052655
                ],
                "xyz": [
                    -1.4407735029447672,
                    -0.5765646486550919,
                    1.1868733461593526
                ],
                "label": "O",
                "properties": {}
            },
            {
                "species": [
                    {
                        "element": "O",
                        "occu": 1
                    }
                ],
                "abc": [
                    0.10471548,
                    0.52524793,
                    0.07709008
                ],
                "xyz": [
                    -2.412498362856339,
                    1.575854564987598,
                    1.5327465324876421
                ],
                "label": "O",
                "properties": {}
            }
        ]
    },
    "spacegroup": {
        "source": "spglib",
        "symbol": "R3",
        "number": 146,
        "point_group": "3",
        "crystal_system": "trigonal",
        "hall": "R 3"
    },
    "dielectric": {
        "epsilon_ionic": [
            [
                2.71862774,
                -8.65e-06,
                -5.81e-06
            ],
            [
                -8.65e-06,
                2.71865528,
                -2.5e-07
            ],
            [
                -5.81e-06,
                -2.5e-07,
                3.37929641
            ]
        ],
        "epsilon_ionic_avg": 2.93885981,
        "epsilon_ionic_eig": [
            2.718625248481846,
            2.7186577714669644,
            3.379296410051188
        ],
        "epsilon_electronic": [
            [
                2.64398533,
                -1.9e-07,
                -0.0
            ],
            [
                1.9e-07,
                2.64398595,
                4.4e-07
            ],
            [
                -0.0,
                4.4e-07,
                2.87150224
            ]
        ],
        "epsilon_electronic_avg": 2.7198245066666673,
        "epsilon_electronic_eig": [
            2.6439853950511387,
            2.643985884948012,
            2.8715022400008507
        ]
    },
    "phonon": {
        "lowest_freq": -0.06583394449715207,
        "frequency": [
            -0.06583394449715207,
            -0.02540140560861459,
            -0.025401402674050833,
            4.949887614090209,
            4.94988791033951,
            5.1174519133303065,
            6.708968358616624,
            6.708968668262006,
            6.8119696852681955,
            7.7897265276675185,
            8.095276136157546,
            8.095276679585853,
            8.477428787804634,
            8.4774289607817,
            9.22858249233206,
            9.32946780909551,
            9.565566585427588,
            9.565566840927485,
            9.96087374443708,
            10.238640770362712,
            10.300035659831705,
            10.300035778472132,
            11.453093681066235,
            11.453093873119249,
            11.70159019744525,
            12.423315501306368,
            12.42331594394206,
            12.635441105137586,
            12.792480486296915,
            12.792480925711534,
            13.52563298678631,
            13.525633646319552,
            13.898143108407512,
            14.633937035196624,
            15.282739502419012,
            15.282739814261175,
            15.870131722050674,
            16.151273948028415,
            16.15127425066724,
            16.384100124867167,
            17.378041438518252,
            17.378042563616845,
            17.942935747199684,
            17.946069862246198,
            17.94607027080383,
            18.889606049309947,
            19.206425813888305,
            19.206426450134032,
            19.957727926867168,
            19.957728171784957,
            20.54601158784604,
            20.546012717895625,
            20.728600364531303,
            21.538239537304694,
            21.81854903327935,
            21.818549929398063,
            21.820849584826007,
            26.464291153201003,
            26.660099836479585,
            26.66010102822368,
            29.577387946349244,
            30.520219082341004,
            30.520220523746865,
            36.4898456869677,
            36.489847193963065,
            36.59986006195408,
            37.3164305212137,
            37.99692514496159,
            37.996926109777,
            39.3410134226501,
            39.341015783342904,
            40.59362352073511,
            40.59362577848002,
            40.74386213350855,
            41.79055724769235
        ]
    },
    "born_effective_charge": {
        "avg_abs_trace": 2.029098933333333,
        "tensors": [
            [
                [
                    2.90596,
                    0.26663,
                    0.15754
                ],
                [
                    0.43798,
                    3.05083,
                    0.36134
                ],
                [
                    -0.00676,
                    -0.00759,
                    3.08728
                ]
            ],
            [
                [
                    3.31972,
                    -0.1991,
                    -0.3917
                ],
                [
                    -0.02775,
                    2.63707,
                    -0.04423
                ],
                [
                    0.00996,
                    -0.00206,
                    3.08728
                ]
            ],
            [
                [
                    2.70951,
                    -0.32457,
                    0.23416
                ],
                [
                    -0.15321,
                    3.24729,
                    -0.31711
                ],
                [
                    -0.0032,
                    0.00966,
                    3.08728
                ]
            ],
            [
                [
                    2.81412,
                    0.16525,
                    -0.0
                ],
                [
                    -0.16526,
                    2.81412,
                    0.0
                ],
                [
                    -0.0,
                    0.0,
                    3.29184
                ]
            ],
            [
                [
                    1.69785,
                    0.91281,
                    -0.35146
                ],
                [
                    0.76586,
                    2.18359,
                    -0.23674
                ],
                [
                    -0.12406,
                    -0.09647,
                    2.76349
                ]
            ],
            [
                [
                    2.78904,
                    -0.13588,
                    0.38074
                ],
                [
                    -0.28284,
                    1.0924,
                    -0.18599
                ],
                [
                    0.14557,
                    -0.0592,
                    2.76349
                ]
            ],
            [
                [
                    1.33525,
                    -0.55653,
                    -0.0293
                ],
                [
                    -0.70348,
                    2.54617,
                    0.42273
                ],
                [
                    -0.02152,
                    0.15567,
                    2.76349
                ]
            ],
            [
                [
                    1.94022,
                    0.6599,
                    -0.28561
                ],
                [
                    0.7804,
                    1.86315,
                    0.4154
                ],
                [
                    -0.56656,
                    0.22771,
                    2.89801
                ]
            ],
            [
                [
                    2.50608,
                    -0.45371,
                    -0.21693
                ],
                [
                    -0.33321,
                    1.29729,
                    -0.45504
                ],
                [
                    0.08608,
                    -0.60451,
                    2.89801
                ]
            ],
            [
                [
                    1.25875,
                    -0.38695,
                    0.50254
                ],
                [
                    -0.26646,
                    2.54463,
                    0.03965
                ],
                [
                    0.48048,
                    0.37681,
                    2.89801
                ]
            ],
            [
                [
                    -2.34101,
                    0.16757,
                    0.19507
                ],
                [
                    0.02883,
                    -1.16826,
                    -0.18846
                ],
                [
                    0.17024,
                    -0.24822,
                    -1.54313
                ]
            ],
            [
                [
                    -0.71676,
                    0.05661,
                    -0.20831
                ],
                [
                    0.09781,
                    -1.49196,
                    -0.45453
                ],
                [
                    -0.23948,
                    -0.47637,
                    -2.41568
                ]
            ],
            [
                [
                    -1.36501,
                    0.27648,
                    -0.28949
                ],
                [
                    0.31763,
                    -0.84368,
                    0.40763
                ],
                [
                    -0.29281,
                    0.44558,
                    -2.41568
                ]
            ],
            [
                [
                    -1.23129,
                    -0.39483,
                    0.49776
                ],
                [
                    -0.35372,
                    -0.97749,
                    0.0469
                ],
                [
                    0.53229,
                    0.03079,
                    -2.41568
                ]
            ],
            [
                [
                    -1.5465,
                    -0.48755,
                    -0.26076
                ],
                [
                    -0.62635,
                    -1.9628,
                    -0.07471
                ],
                [
                    -0.30009,
                    -0.02333,
                    -1.54313
                ]
            ],
            [
                [
                    -2.14193,
                    0.15406,
                    -0.71541
                ],
                [
                    0.43882,
                    -1.46643,
                    0.17966
                ],
                [
                    -0.64051,
                    -0.02008,
                    -1.77657
                ]
            ],
            [
                [
                    -1.89201,
                    -0.58305,
                    0.51323
                ],
                [
                    -0.29835,
                    -1.71634,
                    0.52976
                ],
                [
                    0.30287,
                    0.56474,
                    -1.77657
                ]
            ],
            [
                [
                    -1.1413,
                    0.29635,
                    -0.43109
                ],
                [
                    0.33878,
                    -1.52404,
                    0.16223
                ],
                [
                    -0.45309,
                    -0.00534,
                    -2.55989
                ]
            ],
            [
                [
                    -1.7034,
                    -0.01428,
                    0.3561
                ],
                [
                    0.0282,
                    -0.96201,
                    0.29216
                ],
                [
                    0.22192,
                    0.39506,
                    -2.55989
                ]
            ],
            [
                [
                    -1.15335,
                    -0.34571,
                    0.07499
                ],
                [
                    -0.30327,
                    -1.51202,
                    -0.45447
                ],
                [
                    0.23117,
                    -0.38972,
                    -2.55989
                ]
            ],
            [
                [
                    -1.72185,
                    -0.52708,
                    -0.03829
                ],
                [
                    -0.79134,
                    -1.80402,
                    -0.27826
                ],
                [
                    0.10472,
                    -0.26076,
                    -1.55078
                ]
            ],
            [
                [
                    -1.21262,
                    0.49732,
                    -0.22184
                ],
                [
                    0.23303,
                    -2.31332,
                    0.17229
                ],
                [
                    -0.27818,
                    0.03969,
                    -1.55078
                ]
            ],
            [
                [
                    -2.35447,
                    0.42623,
                    0.26016
                ],
                [
                    0.16187,
                    -1.1715,
                    0.10597
                ],
                [
                    0.17346,
                    0.22107,
                    -1.55078
                ]
            ],
            [
                [
                    -1.37858,
                    0.00194,
                    0.2022
                ],
                [
                    0.28663,
                    -2.22979,
                    -0.70935
                ],
                [
                    0.33765,
                    -0.54466,
                    -1.77657
                ]
            ],
            [
                [
                    -1.37642,
                    0.52812,
                    0.06571
                ],
                [
                    0.38939,
                    -2.13289,
                    0.26319
                ],
                [
                    0.12984,
                    0.27155,
                    -1.54313
                ]
            ]
        ]
    },
    "band_gap": 5.8698,
    "is_direct": false,
    "formula": "Al4(B2O5)3"
}