{
    "mp_id": "mp-3748",
    "nelements": 3,
    "nsites": 4,
    "elements": [
        "Al",
        "Cu",
        "O"
    ],
    "structure": {
        "@module": "pymatgen.core.structure",
        "@class": "Structure",
        "charge": null,
        "lattice": {
            "matrix": [
                [
                    1.42644376,
                    0.82355776,
                    5.60924042
                ],
                [
                    -1.42644376,
                    0.82355776,
                    5.60924042
                ],
                [
                    0.0,
                    -1.64711451,
                    5.60924042
                ]
            ],
            "a": 5.846072807779675,
            "b": 5.846072807779675,
            "c": 5.846072553297154,
            "alpha": 28.2455230735767,
            "beta": 28.2455230735767,
            "gamma": 28.245529416830603,
            "volume": 39.53701203969849
        },
        "sites": [
            {
                "species": [
                    {
                        "element": "Al",
                        "occu": 1
                    }
                ],
                "abc": [
                    0.5,
                    0.5,
                    0.5
                ],
                "xyz": [
                    0.0,
                    5.050000000395016e-07,
                    8.41386063
                ],
                "label": "Al",
                "properties": {}
            },
            {
                "species": [
                    {
                        "element": "Cu",
                        "occu": 1
                    }
                ],
                "abc": [
                    0.0,
                    0.0,
                    0.0
                ],
                "xyz": [
                    0.0,
                    0.0,
                    0.0
                ],
                "label": "Cu",
                "properties": {}
            },
            {
                "species": [
                    {
                        "element": "O",
                        "occu": 1
                    }
                ],
                "abc": [
                    0.89076409,
                    0.89076409,
                    0.89076409
                ],
                "xyz": [
                    0.0,
                    8.996717311138269e-07,
                    14.989529814937555
                ],
                "label": "O",
                "properties": {}
            },
            {
                "species": [
                    {
                        "element": "O",
                        "occu": 1
                    }
                ],
                "abc": [
                    0.10923591,
                    0.10923591,
                    0.10923591
                ],
                "xyz": [
                    0.0,
                    1.1032826913170979e-07,
                    1.8381914450624466
                ],
                "label": "O",
                "properties": {}
            }
        ]
    },
    "spacegroup": {
        "source": "spglib",
        "symbol": "R-3m",
        "number": 166,
        "point_group": "-3m",
        "crystal_system": "trigonal",
        "hall": "-R 3 2\""
    },
    "dielectric": {
        "epsilon_ionic": [
            [
                4.52803285,
                0.0,
                -0.0
            ],
            [
                0.0,
                4.52783583,
                -2.44e-06
            ],
            [
                -0.0,
                -2.44e-06,
                2.26866388
            ]
        ],
        "epsilon_ionic_avg": 3.7748441866666664,
        "epsilon_ionic_eig": [
            2.268663879997365,
            4.527835830002635,
            4.52803285
        ],
        "epsilon_electronic": [
            [
                5.07580648,
                0.0,
                0.0
            ],
            [
                0.0,
                5.0758045,
                2.6e-07
            ],
            [
                0.0,
                2.6e-07,
                4.31795741
            ]
        ],
        "epsilon_electronic_avg": 4.823189463333333,
        "epsilon_electronic_eig": [
            4.317957409999911,
            5.075804500000089,
            5.07580648
        ]
    },
    "phonon": {
        "lowest_freq": -0.03467918817648905,
        "frequency": [
            -0.03467918817648905,
            -0.004960027593487658,
            -0.004960026632645619,
            4.356373004004762,
            4.356373853946129,
            12.364389808800173,
            12.364392220307217,
            13.81145413608814,
            14.957525563781784,
            14.957528480401852,
            20.8247549048963,
            22.457641259173943
        ]
    },
    "born_effective_charge": {
        "avg_abs_trace": 1.9883716666666666,
        "tensors": [
            [
                [
                    3.04863,
                    0.0,
                    0.0
                ],
                [
                    0.0,
                    3.0486,
                    0.0
                ],
                [
                    -0.0,
                    0.0,
                    2.79662
                ]
            ],
            [
                [
                    0.80468,
                    0.0,
                    0.0
                ],
                [
                    0.0,
                    0.80463,
                    -1e-05
                ],
                [
                    0.0,
                    0.0,
                    1.42707
                ]
            ],
            [
                [
                    -1.92665,
                    -3e-05,
                    -0.0001
                ],
                [
                    0.0,
                    -1.92664,
                    -5e-05
                ],
                [
                    0.0,
                    -0.0,
                    -2.11182
                ]
            ],
            [
                [
                    -1.92665,
                    3e-05,
                    0.0001
                ],
                [
                    0.0,
                    -1.9266,
                    6e-05
                ],
                [
                    0.0,
                    -0.0,
                    -2.11187
                ]
            ]
        ]
    },
    "band_gap": 2.3155,
    "is_direct": false,
    "formula": "AlCuO2"
}