{
    "mp_id": "mp-3527",
    "nelements": 3,
    "nsites": 12,
    "elements": [
        "Ag",
        "Na",
        "O"
    ],
    "structure": {
        "@module": "pymatgen.core.structure",
        "@class": "Structure",
        "charge": null,
        "lattice": {
            "matrix": [
                [
                    -2.69729282,
                    5.38261067,
                    2.90096094
                ],
                [
                    2.69729282,
                    -5.38261067,
                    2.90096094
                ],
                [
                    2.69729282,
                    5.38261067,
                    -2.90096094
                ]
            ],
            "a": 6.683072688294441,
            "b": 6.683072688294441,
            "c": 6.683072688294441,
            "alpha": 132.39306094182496,
            "beta": 72.70034432379718,
            "gamma": 128.5469841249489,
            "volume": 168.47014005292615
        },
        "sites": [
            {
                "species": [
                    {
                        "element": "Na",
                        "occu": 1
                    }
                ],
                "abc": [
                    0.01080699,
                    0.25,
                    0.76080699
                ],
                "xyz": [
                    2.69729282,
                    2.8076449743691665,
                    -1.45048047
                ],
                "label": "Na",
                "properties": {}
            },
            {
                "species": [
                    {
                        "element": "Na",
                        "occu": 1
                    }
                ],
                "abc": [
                    0.25,
                    0.75,
                    0.5
                ],
                "xyz": [
                    2.6972928200000004,
                    -4.440892098500626e-16,
                    1.45048047
                ],
                "label": "Na",
                "properties": {}
            },
            {
                "species": [
                    {
                        "element": "Na",
                        "occu": 1
                    }
                ],
                "abc": [
                    0.51080699,
                    0.75,
                    0.76080699
                ],
                "xyz": [
                    2.6972928200000004,
                    2.807644974369166,
                    1.4504804699999996
                ],
                "label": "Na",
                "properties": {}
            },
            {
                "species": [
                    {
                        "element": "Na",
                        "occu": 1
                    }
                ],
                "abc": [
                    0.98919301,
                    0.75,
                    0.23919301
                ],
                "xyz": [
                    1.1102230246251565e-16,
                    2.5749656956308336,
                    4.35144141
                ],
                "label": "Na",
                "properties": {}
            },
            {
                "species": [
                    {
                        "element": "Na",
                        "occu": 1
                    }
                ],
                "abc": [
                    0.75,
                    0.25,
                    0.5
                ],
                "xyz": [
                    -2.220446049250313e-16,
                    5.38261067,
                    1.45048047
                ],
                "label": "Na",
                "properties": {}
            },
            {
                "species": [
                    {
                        "element": "Na",
                        "occu": 1
                    }
                ],
                "abc": [
                    0.48919301,
                    0.25,
                    0.23919301
                ],
                "xyz": [
                    0.0,
                    2.5749656956308336,
                    1.45048047
                ],
                "label": "Na",
                "properties": {}
            },
            {
                "species": [
                    {
                        "element": "Ag",
                        "occu": 1
                    }
                ],
                "abc": [
                    0.0,
                    0.0,
                    0.0
                ],
                "xyz": [
                    0.0,
                    0.0,
                    0.0
                ],
                "label": "Ag",
                "properties": {}
            },
            {
                "species": [
                    {
                        "element": "Ag",
                        "occu": 1
                    }
                ],
                "abc": [
                    0.5,
                    0.5,
                    0.0
                ],
                "xyz": [
                    0.0,
                    0.0,
                    2.90096094
                ],
                "label": "Ag",
                "properties": {}
            },
            {
                "species": [
                    {
                        "element": "O",
                        "occu": 1
                    }
                ],
                "abc": [
                    0.8649235,
                    0.27359749,
                    0.13852099
                ],
                "xyz": [
                    -1.221347729305956,
                    3.928482249667489,
                    2.90096094
                ],
                "label": "O",
                "properties": {}
            },
            {
                "species": [
                    {
                        "element": "O",
                        "occu": 1
                    }
                ],
                "abc": [
                    0.6350765,
                    0.77359749,
                    0.40867299
                ],
                "xyz": [
                    1.4759423934012232,
                    1.4541230377218404,
                    2.90096384096094
                ],
                "label": "O",
                "properties": {}
            },
            {
                "species": [
                    {
                        "element": "O",
                        "occu": 1
                    }
                ],
                "abc": [
                    0.1350765,
                    0.72640251,
                    0.86147901
                ],
                "xyz": [
                    3.9186405493059566,
                    1.45412842033251,
                    0.0
                ],
                "label": "O",
                "properties": {}
            },
            {
                "species": [
                    {
                        "element": "O",
                        "occu": 1
                    }
                ],
                "abc": [
                    0.3649235,
                    0.22640251,
                    0.59132701
                ],
                "xyz": [
                    1.2213504265987765,
                    3.92848763227816,
                    -2.9009609399111014e-06
                ],
                "label": "O",
                "properties": {}
            }
        ]
    },
    "spacegroup": {
        "source": "spglib",
        "symbol": "Ibam",
        "number": 72,
        "point_group": "mmm",
        "crystal_system": "orthorhombic",
        "hall": "-I 2 2c"
    },
    "dielectric": {
        "epsilon_ionic": [
            [
                3.16628087,
                0.0,
                -0.0
            ],
            [
                0.0,
                3.15102294,
                -0.0
            ],
            [
                -0.0,
                -0.0,
                3.12151208
            ]
        ],
        "epsilon_ionic_avg": 3.1462719633333336,
        "epsilon_ionic_eig": [
            3.16628087,
            3.15102294,
            3.12151208
        ],
        "epsilon_electronic": [
            [
                3.71633769,
                -0.0,
                0.0
            ],
            [
                0.0,
                3.68895862,
                0.0
            ],
            [
                0.0,
                0.0,
                3.97997423
            ]
        ],
        "epsilon_electronic_avg": 3.7950901800000003,
        "epsilon_electronic_eig": [
            3.71633769,
            3.68895862,
            3.97997423
        ]
    },
    "phonon": {
        "lowest_freq": -0.022477606575705102,
        "frequency": [
            -0.022477606575705102,
            -0.01777941799731029,
            -0.017067695172412203,
            2.8871389637134435,
            3.0558344118919147,
            3.343603116797534,
            3.5311394200830053,
            4.073684648898292,
            4.203507170197806,
            4.433399500678279,
            4.434975351910022,
            4.597343612739349,
            5.179556789564951,
            5.371324814116633,
            6.054031614023091,
            6.1312209424691195,
            6.380227350389405,
            6.884781761573339,
            7.043932846935302,
            7.212266145158096,
            7.738798649828359,
            8.226290483475443,
            8.227514310783475,
            8.388678253084441,
            8.7060177308402,
            8.714265497892825,
            8.881343589650667,
            8.894352372116566,
            8.89520691451021,
            9.053852453181426,
            9.05547178930775,
            9.05592708602398,
            12.135838784182587,
            13.708192885788026,
            14.04340110368957,
            14.197420372943478
        ]
    },
    "born_effective_charge": {
        "avg_abs_trace": 1.1777938888888888,
        "tensors": [
            [
                [
                    0.8643,
                    0.0,
                    0.15789
                ],
                [
                    0.0,
                    1.18572,
                    0.0
                ],
                [
                    0.00047,
                    2e-05,
                    0.91146
                ]
            ],
            [
                [
                    1.24015,
                    0.0,
                    -0.0
                ],
                [
                    0.0,
                    0.66998,
                    -0.0
                ],
                [
                    0.0,
                    -0.0,
                    0.93911
                ]
            ],
            [
                [
                    0.8643,
                    0.0,
                    -0.15789
                ],
                [
                    0.0,
                    1.18572,
                    0.0
                ],
                [
                    -0.00047,
                    2e-05,
                    0.91146
                ]
            ],
            [
                [
                    0.8643,
                    -0.0,
                    0.15789
                ],
                [
                    -0.0,
                    1.18572,
                    -0.0
                ],
                [
                    0.00047,
                    -2e-05,
                    0.91146
                ]
            ],
            [
                [
                    1.24015,
                    0.0,
                    -0.0
                ],
                [
                    0.0,
                    0.66998,
                    -0.0
                ],
                [
                    0.0,
                    -0.0,
                    0.93911
                ]
            ],
            [
                [
                    0.8643,
                    -0.0,
                    -0.15789
                ],
                [
                    -0.0,
                    1.18572,
                    -0.0
                ],
                [
                    -0.00047,
                    -2e-05,
                    0.91146
                ]
            ],
            [
                [
                    0.70192,
                    -0.77088,
                    -0.0
                ],
                [
                    -0.77856,
                    0.63988,
                    -0.0
                ],
                [
                    0.0,
                    -0.0,
                    0.48615
                ]
            ],
            [
                [
                    0.70192,
                    0.77088,
                    -0.0
                ],
                [
                    0.77856,
                    0.63988,
                    -0.0
                ],
                [
                    0.0,
                    -0.0,
                    0.48615
                ]
            ],
            [
                [
                    -1.83533,
                    0.46212,
                    0.0
                ],
                [
                    0.43013,
                    -1.84067,
                    -0.0
                ],
                [
                    -9e-05,
                    7e-05,
                    -1.62409
                ]
            ],
            [
                [
                    -1.83533,
                    -0.46212,
                    0.0
                ],
                [
                    -0.43016,
                    -1.84061,
                    -0.0
                ],
                [
                    -9e-05,
                    -7e-05,
                    -1.62409
                ]
            ],
            [
                [
                    -1.83535,
                    0.46221,
                    0.0
                ],
                [
                    0.43016,
                    -1.84061,
                    0.0
                ],
                [
                    9e-05,
                    -7e-05,
                    -1.62409
                ]
            ],
            [
                [
                    -1.83535,
                    -0.46221,
                    -0.0
                ],
                [
                    -0.43013,
                    -1.84067,
                    0.0
                ],
                [
                    9e-05,
                    7e-05,
                    -1.62409
                ]
            ]
        ]
    },
    "band_gap": 1.3941000000000003,
    "is_direct": false,
    "formula": "Na3AgO2"
}