{
    "mp_id": "mp-3468",
    "nelements": 3,
    "nsites": 32,
    "elements": [
        "As",
        "Na",
        "O"
    ],
    "structure": {
        "@module": "pymatgen.core.structure",
        "@class": "Structure",
        "charge": null,
        "lattice": {
            "matrix": [
                [
                    5.08682226,
                    0.0,
                    0.0
                ],
                [
                    0.0,
                    14.42325191,
                    0.0
                ],
                [
                    0.0,
                    0.0,
                    6.71264675
                ]
            ],
            "a": 5.08682226,
            "b": 14.42325191,
            "c": 6.71264675,
            "alpha": 90.0,
            "beta": 90.0,
            "gamma": 90.0,
            "volume": 492.49694979452835
        },
        "sites": [
            {
                "species": [
                    {
                        "element": "Na",
                        "occu": 1
                    }
                ],
                "abc": [
                    0.24330605,
                    0.94663114,
                    0.09958244
                ],
                "xyz": [
                    1.237654631132673,
                    13.653499398070478,
                    0.66846174222307
                ],
                "label": "Na",
                "properties": {}
            },
            {
                "species": [
                    {
                        "element": "Na",
                        "occu": 1
                    }
                ],
                "abc": [
                    0.74330605,
                    0.94663114,
                    0.40041756
                ],
                "xyz": [
                    3.7810657611326732,
                    13.653499398070478,
                    2.6878616327769302
                ],
                "label": "Na",
                "properties": {}
            },
            {
                "species": [
                    {
                        "element": "Na",
                        "occu": 1
                    }
                ],
                "abc": [
                    0.25669395,
                    0.44663114,
                    0.09958244
                ],
                "xyz": [
                    1.305756498867327,
                    6.4418734430704765,
                    0.66846174222307
                ],
                "label": "Na",
                "properties": {}
            },
            {
                "species": [
                    {
                        "element": "Na",
                        "occu": 1
                    }
                ],
                "abc": [
                    0.75669395,
                    0.05336886,
                    0.90041756
                ],
                "xyz": [
                    3.8491676288673267,
                    0.7697525119295225,
                    6.04418500777693
                ],
                "label": "Na",
                "properties": {}
            },
            {
                "species": [
                    {
                        "element": "Na",
                        "occu": 1
                    }
                ],
                "abc": [
                    0.75669395,
                    0.44663114,
                    0.40041756
                ],
                "xyz": [
                    3.8491676288673267,
                    6.4418734430704765,
                    2.6878616327769302
                ],
                "label": "Na",
                "properties": {}
            },
            {
                "species": [
                    {
                        "element": "Na",
                        "occu": 1
                    }
                ],
                "abc": [
                    0.25669395,
                    0.05336886,
                    0.59958244
                ],
                "xyz": [
                    1.305756498867327,
                    0.7697525119295225,
                    4.024785117223071
                ],
                "label": "Na",
                "properties": {}
            },
            {
                "species": [
                    {
                        "element": "Na",
                        "occu": 1
                    }
                ],
                "abc": [
                    0.74330605,
                    0.55336886,
                    0.90041756
                ],
                "xyz": [
                    3.7810657611326732,
                    7.981378466929522,
                    6.04418500777693
                ],
                "label": "Na",
                "properties": {}
            },
            {
                "species": [
                    {
                        "element": "Na",
                        "occu": 1
                    }
                ],
                "abc": [
                    0.24330605,
                    0.55336886,
                    0.59958244
                ],
                "xyz": [
                    1.237654631132673,
                    7.981378466929522,
                    4.024785117223071
                ],
                "label": "Na",
                "properties": {}
            },
            {
                "species": [
                    {
                        "element": "As",
                        "occu": 1
                    }
                ],
                "abc": [
                    0.2661869,
                    0.32864534,
                    0.6007611
                ],
                "xyz": [
                    1.354045448240394,
                    4.7401345278676,
                    4.0326970454414255
                ],
                "label": "As",
                "properties": {}
            },
            {
                "species": [
                    {
                        "element": "As",
                        "occu": 1
                    }
                ],
                "abc": [
                    0.7661869,
                    0.17135466,
                    0.3992389
                ],
                "xyz": [
                    3.897456578240394,
                    2.4714914271324004,
                    2.679949704558575
                ],
                "label": "As",
                "properties": {}
            },
            {
                "species": [
                    {
                        "element": "As",
                        "occu": 1
                    }
                ],
                "abc": [
                    0.2338131,
                    0.67135466,
                    0.1007611
                ],
                "xyz": [
                    1.1893656817596059,
                    9.6831173821324,
                    0.676373670441425
                ],
                "label": "As",
                "properties": {}
            },
            {
                "species": [
                    {
                        "element": "As",
                        "occu": 1
                    }
                ],
                "abc": [
                    0.7338131,
                    0.82864534,
                    0.8992389
                ],
                "xyz": [
                    3.732776811759606,
                    11.951760482867599,
                    6.036273079558575
                ],
                "label": "As",
                "properties": {}
            },
            {
                "species": [
                    {
                        "element": "As",
                        "occu": 1
                    }
                ],
                "abc": [
                    0.7338131,
                    0.67135466,
                    0.3992389
                ],
                "xyz": [
                    3.732776811759606,
                    9.6831173821324,
                    2.679949704558575
                ],
                "label": "As",
                "properties": {}
            },
            {
                "species": [
                    {
                        "element": "As",
                        "occu": 1
                    }
                ],
                "abc": [
                    0.2338131,
                    0.82864534,
                    0.6007611
                ],
                "xyz": [
                    1.1893656817596059,
                    11.951760482867599,
                    4.0326970454414255
                ],
                "label": "As",
                "properties": {}
            },
            {
                "species": [
                    {
                        "element": "As",
                        "occu": 1
                    }
                ],
                "abc": [
                    0.7661869,
                    0.32864534,
                    0.8992389
                ],
                "xyz": [
                    3.897456578240394,
                    4.7401345278676,
                    6.036273079558575
                ],
                "label": "As",
                "properties": {}
            },
            {
                "species": [
                    {
                        "element": "As",
                        "occu": 1
                    }
                ],
                "abc": [
                    0.2661869,
                    0.17135466,
                    0.1007611
                ],
                "xyz": [
                    1.354045448240394,
                    2.4714914271324004,
                    0.676373670441425
                ],
                "label": "As",
                "properties": {}
            },
            {
                "species": [
                    {
                        "element": "O",
                        "occu": 1
                    }
                ],
                "abc": [
                    0.0771674,
                    0.11978154,
                    0.31127928
                ],
                "xyz": [
                    0.392536848066324,
                    1.7276393255877414,
                    2.08950784723434
                ],
                "label": "O",
                "properties": {}
            },
            {
                "species": [
                    {
                        "element": "O",
                        "occu": 1
                    }
                ],
                "abc": [
                    0.5771674,
                    0.38021846,
                    0.68872072
                ],
                "xyz": [
                    2.935947978066324,
                    5.483986629412258,
                    4.6231389027656595
                ],
                "label": "O",
                "properties": {}
            },
            {
                "species": [
                    {
                        "element": "O",
                        "occu": 1
                    }
                ],
                "abc": [
                    0.4228326,
                    0.88021846,
                    0.81127928
                ],
                "xyz": [
                    2.150874281933676,
                    12.695612584412258,
                    5.44583122223434
                ],
                "label": "O",
                "properties": {}
            },
            {
                "species": [
                    {
                        "element": "O",
                        "occu": 1
                    }
                ],
                "abc": [
                    0.9228326,
                    0.61978154,
                    0.18872072
                ],
                "xyz": [
                    4.694285411933676,
                    8.93926528058774,
                    1.26681552776566
                ],
                "label": "O",
                "properties": {}
            },
            {
                "species": [
                    {
                        "element": "O",
                        "occu": 1
                    }
                ],
                "abc": [
                    0.9228326,
                    0.88021846,
                    0.68872072
                ],
                "xyz": [
                    4.694285411933676,
                    12.695612584412258,
                    4.6231389027656595
                ],
                "label": "O",
                "properties": {}
            },
            {
                "species": [
                    {
                        "element": "O",
                        "occu": 1
                    }
                ],
                "abc": [
                    0.4228326,
                    0.61978154,
                    0.31127928
                ],
                "xyz": [
                    2.150874281933676,
                    8.93926528058774,
                    2.08950784723434
                ],
                "label": "O",
                "properties": {}
            },
            {
                "species": [
                    {
                        "element": "O",
                        "occu": 1
                    }
                ],
                "abc": [
                    0.5771674,
                    0.11978154,
                    0.18872072
                ],
                "xyz": [
                    2.935947978066324,
                    1.7276393255877414,
                    1.26681552776566
                ],
                "label": "O",
                "properties": {}
            },
            {
                "species": [
                    {
                        "element": "O",
                        "occu": 1
                    }
                ],
                "abc": [
                    0.0771674,
                    0.38021846,
                    0.81127928
                ],
                "xyz": [
                    0.392536848066324,
                    5.483986629412258,
                    5.44583122223434
                ],
                "label": "O",
                "properties": {}
            },
            {
                "species": [
                    {
                        "element": "O",
                        "occu": 1
                    }
                ],
                "abc": [
                    0.20752568,
                    0.08732055,
                    0.92522246
                ],
                "xyz": [
                    1.0556462485456368,
                    1.2594462895697505,
                    6.210691539146005
                ],
                "label": "O",
                "properties": {}
            },
            {
                "species": [
                    {
                        "element": "O",
                        "occu": 1
                    }
                ],
                "abc": [
                    0.70752568,
                    0.41267945,
                    0.07477754
                ],
                "xyz": [
                    3.599057378545637,
                    5.95217966543025,
                    0.5019552108539951
                ],
                "label": "O",
                "properties": {}
            },
            {
                "species": [
                    {
                        "element": "O",
                        "occu": 1
                    }
                ],
                "abc": [
                    0.29247432,
                    0.91267945,
                    0.42522246
                ],
                "xyz": [
                    1.4877648814543631,
                    13.163805620430248,
                    2.8543681641460052
                ],
                "label": "O",
                "properties": {}
            },
            {
                "species": [
                    {
                        "element": "O",
                        "occu": 1
                    }
                ],
                "abc": [
                    0.20752568,
                    0.41267945,
                    0.42522246
                ],
                "xyz": [
                    1.0556462485456368,
                    5.95217966543025,
                    2.8543681641460052
                ],
                "label": "O",
                "properties": {}
            },
            {
                "species": [
                    {
                        "element": "O",
                        "occu": 1
                    }
                ],
                "abc": [
                    0.79247432,
                    0.91267945,
                    0.07477754
                ],
                "xyz": [
                    4.031176011454363,
                    13.163805620430248,
                    0.5019552108539951
                ],
                "label": "O",
                "properties": {}
            },
            {
                "species": [
                    {
                        "element": "O",
                        "occu": 1
                    }
                ],
                "abc": [
                    0.29247432,
                    0.58732055,
                    0.92522246
                ],
                "xyz": [
                    1.4877648814543631,
                    8.47107224456975,
                    6.210691539146005
                ],
                "label": "O",
                "properties": {}
            },
            {
                "species": [
                    {
                        "element": "O",
                        "occu": 1
                    }
                ],
                "abc": [
                    0.70752568,
                    0.08732055,
                    0.57477754
                ],
                "xyz": [
                    3.599057378545637,
                    1.2594462895697505,
                    3.8582785858539954
                ],
                "label": "O",
                "properties": {}
            },
            {
                "species": [
                    {
                        "element": "O",
                        "occu": 1
                    }
                ],
                "abc": [
                    0.79247432,
                    0.58732055,
                    0.57477754
                ],
                "xyz": [
                    4.031176011454363,
                    8.47107224456975,
                    3.8582785858539954
                ],
                "label": "O",
                "properties": {}
            }
        ]
    },
    "spacegroup": {
        "source": "spglib",
        "symbol": "Pbca",
        "number": 61,
        "point_group": "mmm",
        "crystal_system": "orthorhombic",
        "hall": "-P 2ac 2ab"
    },
    "dielectric": {
        "epsilon_ionic": [
            [
                5.76560947,
                0.0,
                -9e-08
            ],
            [
                0.0,
                3.40298033,
                -7e-08
            ],
            [
                -9e-08,
                -7e-08,
                3.18334298
            ]
        ],
        "epsilon_ionic_avg": 4.1173109266666685,
        "epsilon_ionic_eig": [
            5.765609470000007,
            3.1833429799999746,
            3.4029803300000223
        ],
        "epsilon_electronic": [
            [
                3.67224768,
                0.0,
                -0.0
            ],
            [
                0.0,
                2.87562301,
                0.0
            ],
            [
                0.0,
                0.0,
                3.30318471
            ]
        ],
        "epsilon_electronic_avg": 3.2836851333333335,
        "epsilon_electronic_eig": [
            3.67224768,
            2.87562301,
            3.30318471
        ]
    },
    "phonon": {
        "lowest_freq": -0.12640373786848408,
        "frequency": [
            -0.12640373786848408,
            -0.11772906882006086,
            -0.02955085385069577,
            0.6421635860691193,
            0.9107040162917909,
            1.0762193178445616,
            1.2018542973478406,
            1.3254024184856343,
            1.6099016972784717,
            1.6120607950449306,
            1.6278986348155564,
            1.7143669790802338,
            2.1522316103653982,
            2.672790196430639,
            2.89117017853294,
            2.9670151898301302,
            3.0456083003418497,
            3.57903973141495,
            3.7849242649867256,
            3.8052241326286445,
            3.880589270775765,
            4.019590495412259,
            4.038147550198652,
            4.090720913597513,
            4.133918523298948,
            4.147044109145961,
            4.337098314983877,
            4.394737689468866,
            4.432557247846769,
            4.723213704953258,
            5.076545424657498,
            5.1214185306307005,
            5.274633814286517,
            5.2798705442970935,
            5.317264671052759,
            5.365461302114819,
            5.37208940237988,
            5.374232194755338,
            5.533276846065286,
            5.539636464053342,
            5.90336899887161,
            5.91505596331189,
            6.112284736847571,
            6.149716043681381,
            6.519155202810266,
            6.605543091830028,
            6.740219500827225,
            7.075569464681833,
            7.077975555471387,
            7.083936215328542,
            7.157967492564157,
            7.254769498863992,
            7.317789225489044,
            7.320223323823074,
            7.493642412344994,
            7.698475227566312,
            7.8744905705597965,
            8.023944707109282,
            8.028376723086925,
            8.157329306639785,
            9.53277678561188,
            9.588304346778022,
            9.659257106776561,
            9.851621325967036,
            9.867631727381164,
            9.978320218878432,
            10.025804459157623,
            10.07325833131205,
            10.556403491769633,
            10.592596944425878,
            10.924788742193433,
            10.939815838387608,
            15.212790346669813,
            15.251462583793412,
            15.421638837365908,
            15.432793613459232,
            16.15019417225397,
            16.39887202041899,
            16.42727103408768,
            16.474989369818932,
            16.51637713997519,
            16.517015859205344,
            16.64946039135719,
            16.774314353182987,
            19.633302511802942,
            19.747482698053158,
            19.909811448720617,
            20.08675120832555,
            24.122013454733704,
            24.25199394696189,
            24.351438516657492,
            24.434377471389954,
            24.661688156400725,
            24.78873840698626,
            25.162802285231738,
            25.219054689453902
        ]
    },
    "born_effective_charge": {
        "avg_abs_trace": 1.7055508333333333,
        "tensors": [
            [
                [
                    1.03561,
                    -0.0218,
                    -0.09012
                ],
                [
                    0.00018,
                    1.27284,
                    -0.01941
                ],
                [
                    0.02416,
                    0.14714,
                    1.08325
                ]
            ],
            [
                [
                    1.03561,
                    -0.0218,
                    0.09012
                ],
                [
                    0.00018,
                    1.27284,
                    0.01941
                ],
                [
                    -0.02417,
                    -0.14712,
                    1.08328
                ]
            ],
            [
                [
                    1.03561,
                    0.02173,
                    0.09013
                ],
                [
                    -0.00018,
                    1.27284,
                    -0.01941
                ],
                [
                    -0.02416,
                    0.14714,
                    1.08325
                ]
            ],
            [
                [
                    1.03561,
                    -0.02173,
                    -0.09013
                ],
                [
                    0.00021,
                    1.27282,
                    -0.0194
                ],
                [
                    0.02417,
                    0.14712,
                    1.08328
                ]
            ],
            [
                [
                    1.03561,
                    0.02173,
                    -0.09013
                ],
                [
                    -0.00018,
                    1.27284,
                    0.01941
                ],
                [
                    0.02417,
                    -0.14712,
                    1.08328
                ]
            ],
            [
                [
                    1.03561,
                    -0.02173,
                    0.09013
                ],
                [
                    0.00021,
                    1.27282,
                    0.0194
                ],
                [
                    -0.02416,
                    -0.14714,
                    1.08325
                ]
            ],
            [
                [
                    1.03561,
                    0.0218,
                    0.09012
                ],
                [
                    -0.00021,
                    1.27282,
                    -0.0194
                ],
                [
                    -0.02417,
                    0.14712,
                    1.08328
                ]
            ],
            [
                [
                    1.03561,
                    0.0218,
                    -0.09012
                ],
                [
                    -0.00021,
                    1.27282,
                    0.0194
                ],
                [
                    0.02416,
                    -0.14714,
                    1.08325
                ]
            ],
            [
                [
                    2.87841,
                    -0.02633,
                    -0.40348
                ],
                [
                    -0.03425,
                    1.38916,
                    -0.05473
                ],
                [
                    0.27261,
                    0.29556,
                    2.57362
                ]
            ],
            [
                [
                    2.87841,
                    0.02633,
                    0.40348
                ],
                [
                    0.03434,
                    1.38929,
                    -0.05458
                ],
                [
                    -0.27256,
                    0.29563,
                    2.57363
                ]
            ],
            [
                [
                    2.87908,
                    -0.0256,
                    0.40238
                ],
                [
                    -0.03434,
                    1.38929,
                    0.05458
                ],
                [
                    -0.27261,
                    -0.29556,
                    2.57362
                ]
            ],
            [
                [
                    2.87908,
                    0.0256,
                    -0.40238
                ],
                [
                    0.03425,
                    1.38916,
                    0.05473
                ],
                [
                    0.27256,
                    -0.29563,
                    2.57363
                ]
            ],
            [
                [
                    2.87908,
                    -0.0256,
                    -0.40238
                ],
                [
                    -0.03434,
                    1.38929,
                    -0.05458
                ],
                [
                    0.27256,
                    0.29563,
                    2.57363
                ]
            ],
            [
                [
                    2.87908,
                    0.0256,
                    0.40238
                ],
                [
                    0.03425,
                    1.38916,
                    -0.05473
                ],
                [
                    -0.27261,
                    0.29556,
                    2.57362
                ]
            ],
            [
                [
                    2.87841,
                    -0.02633,
                    0.40348
                ],
                [
                    -0.03425,
                    1.38916,
                    0.05473
                ],
                [
                    -0.27256,
                    -0.29563,
                    2.57363
                ]
            ],
            [
                [
                    2.87841,
                    0.02633,
                    -0.40348
                ],
                [
                    0.03434,
                    1.38929,
                    0.05458
                ],
                [
                    0.27261,
                    -0.29556,
                    2.57362
                ]
            ],
            [
                [
                    -2.76391,
                    0.10171,
                    1.45712
                ],
                [
                    0.02691,
                    -1.05316,
                    0.0353
                ],
                [
                    1.02347,
                    0.14488,
                    -1.83351
                ]
            ],
            [
                [
                    -2.76391,
                    -0.10171,
                    -1.45712
                ],
                [
                    -0.0266,
                    -1.05316,
                    0.03549
                ],
                [
                    -1.02389,
                    0.14507,
                    -1.83346
                ]
            ],
            [
                [
                    -2.76445,
                    0.10153,
                    -1.45818
                ],
                [
                    0.0266,
                    -1.05316,
                    -0.03549
                ],
                [
                    -1.02347,
                    -0.14488,
                    -1.83351
                ]
            ],
            [
                [
                    -2.76445,
                    -0.10153,
                    1.45818
                ],
                [
                    -0.02691,
                    -1.05316,
                    -0.0353
                ],
                [
                    1.02389,
                    -0.14507,
                    -1.83346
                ]
            ],
            [
                [
                    -2.76445,
                    0.10153,
                    1.45818
                ],
                [
                    0.0266,
                    -1.05316,
                    0.03549
                ],
                [
                    1.02389,
                    0.14507,
                    -1.83346
                ]
            ],
            [
                [
                    -2.76445,
                    -0.10153,
                    -1.45818
                ],
                [
                    -0.02691,
                    -1.05316,
                    0.0353
                ],
                [
                    -1.02347,
                    0.14488,
                    -1.83351
                ]
            ],
            [
                [
                    -2.76391,
                    0.10171,
                    -1.45712
                ],
                [
                    0.02691,
                    -1.05316,
                    -0.0353
                ],
                [
                    -1.02389,
                    -0.14507,
                    -1.83346
                ]
            ],
            [
                [
                    -2.76391,
                    -0.10171,
                    1.45712
                ],
                [
                    -0.0266,
                    -1.05316,
                    -0.03549
                ],
                [
                    1.02347,
                    -0.14488,
                    -1.83351
                ]
            ],
            [
                [
                    -1.15,
                    -0.13234,
                    -0.07248
                ],
                [
                    -0.07418,
                    -1.60907,
                    -0.33912
                ],
                [
                    -0.2612,
                    -0.89429,
                    -1.8234
                ]
            ],
            [
                [
                    -1.15,
                    0.13234,
                    0.07248
                ],
                [
                    0.07372,
                    -1.60874,
                    -0.33949
                ],
                [
                    0.26115,
                    -0.89429,
                    -1.8234
                ]
            ],
            [
                [
                    -1.15036,
                    -0.13179,
                    0.07267
                ],
                [
                    -0.07372,
                    -1.60874,
                    0.33949
                ],
                [
                    0.2612,
                    0.89429,
                    -1.8234
                ]
            ],
            [
                [
                    -1.15,
                    0.13234,
                    -0.07248
                ],
                [
                    0.07372,
                    -1.60874,
                    0.33949
                ],
                [
                    -0.2612,
                    0.89429,
                    -1.8234
                ]
            ],
            [
                [
                    -1.15036,
                    -0.13179,
                    -0.07267
                ],
                [
                    -0.07372,
                    -1.60874,
                    -0.33949
                ],
                [
                    -0.26115,
                    -0.89429,
                    -1.8234
                ]
            ],
            [
                [
                    -1.15036,
                    0.13179,
                    0.07267
                ],
                [
                    0.07418,
                    -1.60907,
                    -0.33912
                ],
                [
                    0.2612,
                    -0.89429,
                    -1.8234
                ]
            ],
            [
                [
                    -1.15,
                    -0.13234,
                    0.07248
                ],
                [
                    -0.07418,
                    -1.60907,
                    0.33912
                ],
                [
                    0.26115,
                    0.89429,
                    -1.8234
                ]
            ],
            [
                [
                    -1.15036,
                    0.13179,
                    -0.07267
                ],
                [
                    0.07418,
                    -1.60907,
                    0.33912
                ],
                [
                    -0.26115,
                    0.89429,
                    -1.8234
                ]
            ]
        ]
    },
    "band_gap": 3.2706,
    "is_direct": true,
    "formula": "NaAsO2"
}