{
    "mp_id": "mp-361",
    "nelements": 2,
    "nsites": 6,
    "elements": [
        "Cu",
        "O"
    ],
    "structure": {
        "@module": "pymatgen.core.structure",
        "@class": "Structure",
        "charge": null,
        "lattice": {
            "matrix": [
                [
                    4.204961,
                    0.0,
                    0.0
                ],
                [
                    0.0,
                    4.204961,
                    0.0
                ],
                [
                    0.0,
                    0.0,
                    4.204961
                ]
            ],
            "a": 4.204961,
            "b": 4.204961,
            "c": 4.204961,
            "alpha": 90.0,
            "beta": 90.0,
            "gamma": 90.0,
            "volume": 74.35084634726235
        },
        "sites": [
            {
                "species": [
                    {
                        "element": "Cu",
                        "occu": 1
                    }
                ],
                "abc": [
                    0.25,
                    0.25,
                    0.25
                ],
                "xyz": [
                    1.05124025,
                    1.05124025,
                    1.05124025
                ],
                "label": "Cu",
                "properties": {}
            },
            {
                "species": [
                    {
                        "element": "Cu",
                        "occu": 1
                    }
                ],
                "abc": [
                    0.25,
                    0.75,
                    0.75
                ],
                "xyz": [
                    1.05124025,
                    3.1537207499999997,
                    3.1537207499999997
                ],
                "label": "Cu",
                "properties": {}
            },
            {
                "species": [
                    {
                        "element": "Cu",
                        "occu": 1
                    }
                ],
                "abc": [
                    0.75,
                    0.75,
                    0.25
                ],
                "xyz": [
                    3.1537207499999997,
                    3.1537207499999997,
                    1.05124025
                ],
                "label": "Cu",
                "properties": {}
            },
            {
                "species": [
                    {
                        "element": "Cu",
                        "occu": 1
                    }
                ],
                "abc": [
                    0.75,
                    0.25,
                    0.75
                ],
                "xyz": [
                    3.1537207499999997,
                    1.05124025,
                    3.1537207499999997
                ],
                "label": "Cu",
                "properties": {}
            },
            {
                "species": [
                    {
                        "element": "O",
                        "occu": 1
                    }
                ],
                "abc": [
                    0.0,
                    0.0,
                    0.0
                ],
                "xyz": [
                    0.0,
                    0.0,
                    0.0
                ],
                "label": "O",
                "properties": {}
            },
            {
                "species": [
                    {
                        "element": "O",
                        "occu": 1
                    }
                ],
                "abc": [
                    0.5,
                    0.5,
                    0.5
                ],
                "xyz": [
                    2.1024805,
                    2.1024805,
                    2.1024805
                ],
                "label": "O",
                "properties": {}
            }
        ]
    },
    "spacegroup": {
        "source": "spglib",
        "symbol": "Pn-3m",
        "number": 224,
        "point_group": "m-3m",
        "crystal_system": "cubic",
        "hall": "P 4n 2 3 -1n"
    },
    "dielectric": {
        "epsilon_ionic": [
            [
                1.01739247,
                -0.0,
                0.0
            ],
            [
                -0.0,
                1.01739626,
                -0.0
            ],
            [
                0.0,
                -0.0,
                1.01738719
            ]
        ],
        "epsilon_ionic_avg": 1.0173919733333332,
        "epsilon_ionic_eig": [
            1.01739247,
            1.01739626,
            1.01738719
        ],
        "epsilon_electronic": [
            [
                7.11932221,
                -0.0,
                0.0
            ],
            [
                -0.0,
                7.11932221,
                0.0
            ],
            [
                -0.0,
                -0.0,
                7.11932221
            ]
        ],
        "epsilon_electronic_avg": 7.11932221,
        "epsilon_electronic_eig": [
            7.11932221,
            7.11932221,
            7.11932221
        ]
    },
    "phonon": {
        "lowest_freq": -0.012348933000391232,
        "frequency": [
            -0.012348933000391232,
            -0.012348933000391232,
            -0.012348933000391232,
            2.1364077389121197,
            2.1364077389121197,
            2.1364077389121197,
            2.513570688516245,
            2.513570688516245,
            4.202113500309689,
            4.202113500309689,
            4.202113500309689,
            10.618498828351282,
            15.608070578727036,
            15.608070578727036,
            15.608070578727036,
            19.291513291130343,
            19.291513291130343,
            19.291513291130343
        ]
    },
    "born_effective_charge": {
        "avg_abs_trace": 1.0726577777777777,
        "tensors": [
            [
                [
                    0.80449,
                    0.3439,
                    0.3439
                ],
                [
                    0.3439,
                    0.8045,
                    0.3439
                ],
                [
                    0.3439,
                    0.3439,
                    0.80449
                ]
            ],
            [
                [
                    0.80449,
                    -0.3439,
                    -0.3439
                ],
                [
                    -0.3439,
                    0.8045,
                    0.3439
                ],
                [
                    -0.3439,
                    0.3439,
                    0.80449
                ]
            ],
            [
                [
                    0.80449,
                    0.3439,
                    -0.3439
                ],
                [
                    0.3439,
                    0.8045,
                    -0.3439
                ],
                [
                    -0.3439,
                    -0.3439,
                    0.80449
                ]
            ],
            [
                [
                    0.80449,
                    -0.3439,
                    0.3439
                ],
                [
                    -0.3439,
                    0.8045,
                    -0.3439
                ],
                [
                    0.3439,
                    -0.3439,
                    0.80449
                ]
            ],
            [
                [
                    -1.60899,
                    0.0,
                    0.0
                ],
                [
                    -0.0,
                    -1.60899,
                    0.0
                ],
                [
                    -0.0,
                    0.0,
                    -1.60898
                ]
            ],
            [
                [
                    -1.60899,
                    -0.0,
                    0.0
                ],
                [
                    -0.0,
                    -1.60899,
                    0.0
                ],
                [
                    -0.0,
                    0.0,
                    -1.60898
                ]
            ]
        ]
    },
    "band_gap": 0.8144,
    "is_direct": true,
    "formula": "Cu2O"
}