{
    "mp_id": "mp-30975",
    "nelements": 3,
    "nsites": 28,
    "elements": [
        "B",
        "Na",
        "O"
    ],
    "structure": {
        "@module": "pymatgen.core.structure",
        "@class": "Structure",
        "charge": null,
        "lattice": {
            "matrix": [
                [
                    5.63199248,
                    0.0,
                    0.00081399
                ],
                [
                    0.0,
                    7.33042095,
                    0.0
                ],
                [
                    -5.22506088,
                    0.0,
                    7.95121895
                ]
            ],
            "a": 5.631992538822852,
            "b": 7.33042095,
            "c": 9.514365138596768,
            "alpha": 90.0,
            "beta": 123.30221974771975,
            "gamma": 90.0,
            "volume": 328.2962631010998
        },
        "sites": [
            {
                "species": [
                    {
                        "element": "Na",
                        "occu": 1
                    }
                ],
                "abc": [
                    0.59936439,
                    0.77995105,
                    0.22461524
                ],
                "xyz": [
                    2.2019874336839758,
                    5.717369516894497,
                    1.7864528293666142
                ],
                "label": "Na",
                "properties": {}
            },
            {
                "species": [
                    {
                        "element": "Na",
                        "occu": 1
                    }
                ],
                "abc": [
                    0.40063561,
                    0.27995105,
                    0.27538476
                ],
                "xyz": [
                    0.8174746063160241,
                    2.0521590418944973,
                    2.1899706356333857
                ],
                "label": "Na",
                "properties": {}
            },
            {
                "species": [
                    {
                        "element": "Na",
                        "occu": 1
                    }
                ],
                "abc": [
                    0.40063561,
                    0.22004895,
                    0.77538476
                ],
                "xyz": [
                    -1.7950558336839757,
                    1.6130514331055024,
                    6.165580110633386
                ],
                "label": "Na",
                "properties": {}
            },
            {
                "species": [
                    {
                        "element": "Na",
                        "occu": 1
                    }
                ],
                "abc": [
                    0.59936439,
                    0.72004895,
                    0.72461524
                ],
                "xyz": [
                    -0.4105430063160238,
                    5.278261908105502,
                    5.762062304366615
                ],
                "label": "Na",
                "properties": {}
            },
            {
                "species": [
                    {
                        "element": "Na",
                        "occu": 1
                    }
                ],
                "abc": [
                    0.20786385,
                    0.52736769,
                    0.95529924
                ],
                "xyz": [
                    -3.820809047553883,
                    3.865827163129105,
                    7.59596261910386
                ],
                "label": "Na",
                "properties": {}
            },
            {
                "species": [
                    {
                        "element": "Na",
                        "occu": 1
                    }
                ],
                "abc": [
                    0.79213615,
                    0.02736769,
                    0.54470076
                ],
                "xyz": [
                    1.6152102075538832,
                    0.2006166881291055,
                    4.33167979589614
                ],
                "label": "Na",
                "properties": {}
            },
            {
                "species": [
                    {
                        "element": "Na",
                        "occu": 1
                    }
                ],
                "abc": [
                    0.79213615,
                    0.47263231,
                    0.04470076
                ],
                "xyz": [
                    4.227740647553883,
                    3.4645937868708945,
                    0.35607032089614055
                ],
                "label": "Na",
                "properties": {}
            },
            {
                "species": [
                    {
                        "element": "Na",
                        "occu": 1
                    }
                ],
                "abc": [
                    0.20786385,
                    0.97263231,
                    0.45529924
                ],
                "xyz": [
                    -1.2082786075538834,
                    7.129804261870895,
                    3.6203531441038597
                ],
                "label": "Na",
                "properties": {}
            },
            {
                "species": [
                    {
                        "element": "Na",
                        "occu": 1
                    }
                ],
                "abc": [
                    0.04773394,
                    0.15061182,
                    0.92967216
                ],
                "xyz": [
                    -4.58875644332033,
                    1.104048040645629,
                    7.392065750829253
                ],
                "label": "Na",
                "properties": {}
            },
            {
                "species": [
                    {
                        "element": "Na",
                        "occu": 1
                    }
                ],
                "abc": [
                    0.95226606,
                    0.65061182,
                    0.57032784
                ],
                "xyz": [
                    2.3831576033203294,
                    4.769258515645628,
                    4.535576664170748
                ],
                "label": "Na",
                "properties": {}
            },
            {
                "species": [
                    {
                        "element": "Na",
                        "occu": 1
                    }
                ],
                "abc": [
                    0.95226606,
                    0.84938818,
                    0.07032784
                ],
                "xyz": [
                    4.99568804332033,
                    6.226372909354371,
                    0.5599671891707475
                ],
                "label": "Na",
                "properties": {}
            },
            {
                "species": [
                    {
                        "element": "Na",
                        "occu": 1
                    }
                ],
                "abc": [
                    0.04773394,
                    0.34938818,
                    0.42967216
                ],
                "xyz": [
                    -1.9762260033203298,
                    2.5611624343543706,
                    3.416456275829253
                ],
                "label": "Na",
                "properties": {}
            },
            {
                "species": [
                    {
                        "element": "B",
                        "occu": 1
                    }
                ],
                "abc": [
                    0.27890173,
                    0.83922251,
                    0.84645288
                ],
                "xyz": [
                    -2.8519953840323433,
                    6.151854269015584,
                    6.730559202957278
                ],
                "label": "B",
                "properties": {}
            },
            {
                "species": [
                    {
                        "element": "B",
                        "occu": 1
                    }
                ],
                "abc": [
                    0.72109827,
                    0.33922251,
                    0.65354712
                ],
                "xyz": [
                    0.6463965440323438,
                    2.4866437940155843,
                    5.197083212042721
                ],
                "label": "B",
                "properties": {}
            },
            {
                "species": [
                    {
                        "element": "B",
                        "occu": 1
                    }
                ],
                "abc": [
                    0.72109827,
                    0.16077749,
                    0.15354712
                ],
                "xyz": [
                    3.258926984032344,
                    1.1785666809844155,
                    1.2214737370427216
                ],
                "label": "B",
                "properties": {}
            },
            {
                "species": [
                    {
                        "element": "B",
                        "occu": 1
                    }
                ],
                "abc": [
                    0.27890173,
                    0.66077749,
                    0.34645288
                ],
                "xyz": [
                    -0.23946494403234397,
                    4.843777155984415,
                    2.754949727957279
                ],
                "label": "B",
                "properties": {}
            },
            {
                "species": [
                    {
                        "element": "O",
                        "occu": 1
                    }
                ],
                "abc": [
                    0.05590722,
                    0.85178832,
                    0.87050947
                ],
                "xyz": [
                    -4.233595934748828,
                    6.2439669458933045,
                    6.921656901936465
                ],
                "label": "O",
                "properties": {}
            },
            {
                "species": [
                    {
                        "element": "O",
                        "occu": 1
                    }
                ],
                "abc": [
                    0.94409278,
                    0.35178832,
                    0.62949053
                ],
                "xyz": [
                    2.027997094748828,
                    2.5787564708933037,
                    5.005985513063536
                ],
                "label": "O",
                "properties": {}
            },
            {
                "species": [
                    {
                        "element": "O",
                        "occu": 1
                    }
                ],
                "abc": [
                    0.94409278,
                    0.14821168,
                    0.12949053
                ],
                "xyz": [
                    4.640527534748828,
                    1.0864540041066961,
                    1.0303760380635356
                ],
                "label": "O",
                "properties": {}
            },
            {
                "species": [
                    {
                        "element": "O",
                        "occu": 1
                    }
                ],
                "abc": [
                    0.05590722,
                    0.64821168,
                    0.37050947
                ],
                "xyz": [
                    -1.6210654947488279,
                    4.7516644791066955,
                    2.9460474269364645
                ],
                "label": "O",
                "properties": {}
            },
            {
                "species": [
                    {
                        "element": "O",
                        "occu": 1
                    }
                ],
                "abc": [
                    0.51691384,
                    0.73288233,
                    0.95462375
                ],
                "xyz": [
                    -2.076712351555977,
                    5.372335985716814,
                    7.590843213816684
                ],
                "label": "O",
                "properties": {}
            },
            {
                "species": [
                    {
                        "element": "O",
                        "occu": 1
                    }
                ],
                "abc": [
                    0.48308616,
                    0.23288233,
                    0.54537625
                ],
                "xyz": [
                    -0.1288864884440235,
                    1.7071255107168135,
                    4.336799201183316
                ],
                "label": "O",
                "properties": {}
            },
            {
                "species": [
                    {
                        "element": "O",
                        "occu": 1
                    }
                ],
                "abc": [
                    0.48308616,
                    0.26711767,
                    0.04537625
                ],
                "xyz": [
                    2.4836439515559765,
                    1.9580849642831861,
                    0.3611897261833159
                ],
                "label": "O",
                "properties": {}
            },
            {
                "species": [
                    {
                        "element": "O",
                        "occu": 1
                    }
                ],
                "abc": [
                    0.51691384,
                    0.76711767,
                    0.45462375
                ],
                "xyz": [
                    0.5358180884440231,
                    5.623295439283186,
                    3.615233738816684
                ],
                "label": "O",
                "properties": {}
            },
            {
                "species": [
                    {
                        "element": "O",
                        "occu": 1
                    }
                ],
                "abc": [
                    0.25003824,
                    0.91632703,
                    0.70397585
                ],
                "xyz": [
                    -2.2701031869073125,
                    6.7170628577632785,
                    5.597669647489335
                ],
                "label": "O",
                "properties": {}
            },
            {
                "species": [
                    {
                        "element": "O",
                        "occu": 1
                    }
                ],
                "abc": [
                    0.74996176,
                    0.41632703,
                    0.79602415
                ],
                "xyz": [
                    0.06450434690731299,
                    3.051852382763278,
                    6.329972767510665
                ],
                "label": "O",
                "properties": {}
            },
            {
                "species": [
                    {
                        "element": "O",
                        "occu": 1
                    }
                ],
                "abc": [
                    0.74996176,
                    0.08367297,
                    0.29602415
                ],
                "xyz": [
                    2.6770347869073134,
                    0.6133580922367214,
                    2.354363292510665
                ],
                "label": "O",
                "properties": {}
            },
            {
                "species": [
                    {
                        "element": "O",
                        "occu": 1
                    }
                ],
                "abc": [
                    0.25003824,
                    0.58367297,
                    0.20397585
                ],
                "xyz": [
                    0.3424272530926873,
                    4.278568567236721,
                    1.622060172489335
                ],
                "label": "O",
                "properties": {}
            }
        ]
    },
    "spacegroup": {
        "source": "spglib",
        "symbol": "P2_1/c",
        "number": 14,
        "point_group": "2/m",
        "crystal_system": "monoclinic",
        "hall": "-P 2ybc"
    },
    "dielectric": {
        "epsilon_ionic": [
            [
                3.08631389,
                -4e-08,
                -0.09261974
            ],
            [
                -4e-08,
                3.05714811,
                1.3e-07
            ],
            [
                -0.09261974,
                1.3e-07,
                4.58285549
            ]
        ],
        "epsilon_ionic_avg": 3.5754391633333342,
        "epsilon_ionic_eig": [
            4.58856586109801,
            3.080603518902049,
            3.057148109999945
        ],
        "epsilon_electronic": [
            [
                2.44464614,
                0.0,
                -0.00970908
            ],
            [
                0.0,
                2.29493681,
                0.0
            ],
            [
                -0.00971119,
                0.0,
                2.42098973
            ]
        ],
        "epsilon_electronic_avg": 2.3868575599999997,
        "epsilon_electronic_eig": [
            2.4481213056786193,
            2.417514564321381,
            2.29493681
        ]
    },
    "phonon": {
        "lowest_freq": -0.15983609908371846,
        "frequency": [
            -0.15983609908371846,
            -0.044044481745826924,
            -0.022910258929654842,
            2.175368041287991,
            2.4905499820685177,
            3.2392404251970115,
            3.4331471879322475,
            3.609585584274838,
            4.1743605649723285,
            4.1817130599496695,
            4.257359721803979,
            4.429733564775923,
            4.637278473823204,
            4.765484293825875,
            4.956279780901622,
            4.969302576507251,
            5.134196661675201,
            5.1925704656279805,
            5.3158518179448295,
            5.3523805714749315,
            5.4152506185706795,
            5.415534693378357,
            5.517208851921588,
            5.591809159562291,
            5.789474272946058,
            5.947944169417824,
            6.055252435591811,
            6.167169038765503,
            6.199446629510872,
            6.4082427401054725,
            6.432967288836666,
            6.4787427842651,
            6.602013549013352,
            6.778197383243326,
            6.811998064739948,
            6.824457037140788,
            6.941986473958304,
            7.151375696261766,
            7.195762095144927,
            7.282781497136109,
            7.5147948001264995,
            7.574848070826032,
            7.637358916107505,
            7.705728440162785,
            7.797299171797818,
            7.9007752803890865,
            8.029764196848179,
            8.046805135922174,
            8.101123094655792,
            8.256434849915538,
            8.41114317005231,
            8.476136752443285,
            8.821810718797842,
            8.89645290921449,
            8.910214168943382,
            9.457390485227732,
            9.681536373392605,
            9.967293412908539,
            9.974787478326215,
            10.09837211648284,
            16.6869005084387,
            16.712429784834992,
            16.852665693479736,
            17.072578912163245,
            17.16277287761159,
            17.19206766487583,
            17.227769991919384,
            17.361753980361346,
            22.667570104441882,
            22.709040601128386,
            22.887026573141554,
            23.007934102991953,
            26.36111456115875,
            26.468880041362006,
            26.477236369340474,
            26.479252665650204,
            35.375762878009326,
            35.51376447539406,
            35.771401897405525,
            35.954931212177655,
            36.273377894605616,
            36.343584516587704,
            36.47388324826989,
            37.861196720008856
        ]
    },
    "born_effective_charge": {
        "avg_abs_trace": 1.3144164285714284,
        "tensors": [
            [
                [
                    1.02015,
                    0.03674,
                    0.00395
                ],
                [
                    0.05827,
                    0.94832,
                    -0.05212
                ],
                [
                    -0.02663,
                    -0.06649,
                    1.00074
                ]
            ],
            [
                [
                    1.02015,
                    -0.03674,
                    0.00396
                ],
                [
                    -0.05827,
                    0.94832,
                    0.05212
                ],
                [
                    -0.02663,
                    0.06648,
                    1.00074
                ]
            ],
            [
                [
                    1.02015,
                    0.03674,
                    0.00396
                ],
                [
                    0.05827,
                    0.94832,
                    -0.05213
                ],
                [
                    -0.02663,
                    -0.06648,
                    1.00074
                ]
            ],
            [
                [
                    1.02015,
                    -0.03674,
                    0.00395
                ],
                [
                    -0.05827,
                    0.94832,
                    0.05213
                ],
                [
                    -0.02663,
                    0.06649,
                    1.00074
                ]
            ],
            [
                [
                    0.89873,
                    -0.00722,
                    -0.00661
                ],
                [
                    -0.00359,
                    1.07168,
                    0.02135
                ],
                [
                    -0.00503,
                    -0.02143,
                    1.03017
                ]
            ],
            [
                [
                    0.89873,
                    0.00721,
                    -0.00661
                ],
                [
                    0.00359,
                    1.07168,
                    -0.02135
                ],
                [
                    -0.00503,
                    0.02143,
                    1.03017
                ]
            ],
            [
                [
                    0.89873,
                    -0.00721,
                    -0.00661
                ],
                [
                    -0.00357,
                    1.07168,
                    0.02136
                ],
                [
                    -0.00503,
                    -0.02143,
                    1.03017
                ]
            ],
            [
                [
                    0.89873,
                    0.00722,
                    -0.00661
                ],
                [
                    0.00357,
                    1.07168,
                    -0.02136
                ],
                [
                    -0.00503,
                    0.02143,
                    1.03017
                ]
            ],
            [
                [
                    0.99625,
                    -0.04715,
                    -0.02891
                ],
                [
                    -0.06385,
                    0.95102,
                    -0.04311
                ],
                [
                    0.00702,
                    -0.03084,
                    1.02092
                ]
            ],
            [
                [
                    0.99626,
                    0.04714,
                    -0.0289
                ],
                [
                    0.06385,
                    0.95102,
                    0.04311
                ],
                [
                    0.00703,
                    0.03084,
                    1.02093
                ]
            ],
            [
                [
                    0.99626,
                    -0.04714,
                    -0.0289
                ],
                [
                    -0.06384,
                    0.95102,
                    -0.04312
                ],
                [
                    0.00703,
                    -0.03084,
                    1.02093
                ]
            ],
            [
                [
                    0.99625,
                    0.04715,
                    -0.02891
                ],
                [
                    0.06384,
                    0.95102,
                    0.04312
                ],
                [
                    0.00702,
                    0.03084,
                    1.02092
                ]
            ],
            [
                [
                    2.31585,
                    -0.25533,
                    -0.20652
                ],
                [
                    -0.26607,
                    0.86461,
                    -0.89818
                ],
                [
                    -0.14491,
                    -0.91295,
                    1.68294
                ]
            ],
            [
                [
                    2.31587,
                    0.25534,
                    -0.2065
                ],
                [
                    0.26607,
                    0.86461,
                    0.89818
                ],
                [
                    -0.14489,
                    0.91293,
                    1.68291
                ]
            ],
            [
                [
                    2.31587,
                    -0.25534,
                    -0.2065
                ],
                [
                    -0.26607,
                    0.86459,
                    -0.89814
                ],
                [
                    -0.14489,
                    -0.91293,
                    1.68291
                ]
            ],
            [
                [
                    2.31585,
                    0.25533,
                    -0.20652
                ],
                [
                    0.26607,
                    0.86459,
                    0.89814
                ],
                [
                    -0.14491,
                    0.91295,
                    1.68294
                ]
            ],
            [
                [
                    -2.25275,
                    0.03918,
                    0.18652
                ],
                [
                    0.09048,
                    -1.13075,
                    0.04948
                ],
                [
                    0.15121,
                    0.06327,
                    -1.26907
                ]
            ],
            [
                [
                    -2.25321,
                    -0.03927,
                    0.18669
                ],
                [
                    -0.09048,
                    -1.13075,
                    -0.04948
                ],
                [
                    0.15196,
                    -0.06327,
                    -1.26904
                ]
            ],
            [
                [
                    -2.25321,
                    0.03927,
                    0.18669
                ],
                [
                    0.09083,
                    -1.13077,
                    0.04964
                ],
                [
                    0.15196,
                    0.06327,
                    -1.26904
                ]
            ],
            [
                [
                    -2.25275,
                    -0.03918,
                    0.18652
                ],
                [
                    -0.09083,
                    -1.13077,
                    -0.04964
                ],
                [
                    0.15121,
                    -0.06327,
                    -1.26907
                ]
            ],
            [
                [
                    -1.56977,
                    0.37454,
                    -0.34056
                ],
                [
                    0.34991,
                    -1.43403,
                    0.37232
                ],
                [
                    -0.37071,
                    0.43355,
                    -1.5839
                ]
            ],
            [
                [
                    -1.57009,
                    -0.3746,
                    -0.34076
                ],
                [
                    -0.34991,
                    -1.43403,
                    -0.37232
                ],
                [
                    -0.37025,
                    -0.43323,
                    -1.58364
                ]
            ],
            [
                [
                    -1.57009,
                    0.3746,
                    -0.34076
                ],
                [
                    0.35021,
                    -1.43434,
                    0.37256
                ],
                [
                    -0.37025,
                    0.43323,
                    -1.58364
                ]
            ],
            [
                [
                    -1.56977,
                    -0.37454,
                    -0.34056
                ],
                [
                    -0.35021,
                    -1.43434,
                    -0.37256
                ],
                [
                    -0.37071,
                    -0.43355,
                    -1.5839
                ]
            ],
            [
                [
                    -1.408,
                    -0.12978,
                    0.39207
                ],
                [
                    -0.14986,
                    -1.2706,
                    0.407
                ],
                [
                    0.38826,
                    0.34626,
                    -1.88187
                ]
            ],
            [
                [
                    -1.40815,
                    0.12977,
                    0.39217
                ],
                [
                    0.14986,
                    -1.2706,
                    -0.407
                ],
                [
                    0.3886,
                    -0.34622,
                    -1.882
                ]
            ],
            [
                [
                    -1.40815,
                    -0.12977,
                    0.39217
                ],
                [
                    -0.14982,
                    -1.27076,
                    0.4072
                ],
                [
                    0.3886,
                    0.34622,
                    -1.882
                ]
            ],
            [
                [
                    -1.408,
                    0.12978,
                    0.39207
                ],
                [
                    0.14982,
                    -1.27076,
                    -0.4072
                ],
                [
                    0.38826,
                    -0.34626,
                    -1.88187
                ]
            ]
        ]
    },
    "band_gap": 3.1537,
    "is_direct": false,
    "formula": "Na3BO3"
}