{
    "mp_id": "mp-4236",
    "nelements": 3,
    "nsites": 12,
    "elements": [
        "Ba",
        "O",
        "Zn"
    ],
    "structure": {
        "@module": "pymatgen.core.structure",
        "@class": "Structure",
        "charge": null,
        "lattice": {
            "matrix": [
                [
                    5.82779472,
                    0.0,
                    0.0
                ],
                [
                    -2.91389736,
                    5.04701764,
                    0.0
                ],
                [
                    0.0,
                    0.0,
                    6.65858324
                ]
            ],
            "a": 5.82779472,
            "b": 5.827794169588193,
            "c": 6.65858324,
            "alpha": 90.0,
            "beta": 90.0,
            "gamma": 120.00000312424834,
            "volume": 195.84879400511804
        },
        "sites": [
            {
                "species": [
                    {
                        "element": "Ba",
                        "occu": 1
                    }
                ],
                "abc": [
                    0.65282014,
                    0.0,
                    0.833333
                ],
                "xyz": [
                    3.804501765001661,
                    0.0,
                    5.548817147138919
                ],
                "label": "Ba",
                "properties": {}
            },
            {
                "species": [
                    {
                        "element": "Ba",
                        "occu": 1
                    }
                ],
                "abc": [
                    0.0,
                    0.65282014,
                    0.166667
                ],
                "xyz": [
                    -1.9022508825008304,
                    3.2947947623272698,
                    1.10976609286108
                ],
                "label": "Ba",
                "properties": {}
            },
            {
                "species": [
                    {
                        "element": "Ba",
                        "occu": 1
                    }
                ],
                "abc": [
                    0.34717986,
                    0.34717986,
                    0.5
                ],
                "xyz": [
                    1.0116464774991696,
                    1.7522228776727304,
                    3.32929162
                ],
                "label": "Ba",
                "properties": {}
            },
            {
                "species": [
                    {
                        "element": "Zn",
                        "occu": 1
                    }
                ],
                "abc": [
                    0.4227115,
                    0.4227115,
                    0.0
                ],
                "xyz": [
                    1.23173792389164,
                    2.13343239713086,
                    0.0
                ],
                "label": "Zn",
                "properties": {}
            },
            {
                "species": [
                    {
                        "element": "Zn",
                        "occu": 1
                    }
                ],
                "abc": [
                    0.0,
                    0.5772885,
                    0.666667
                ],
                "xyz": [
                    -1.68215943610836,
                    2.91358524286914,
                    4.4390577128610795
                ],
                "label": "Zn",
                "properties": {}
            },
            {
                "species": [
                    {
                        "element": "Zn",
                        "occu": 1
                    }
                ],
                "abc": [
                    0.5772885,
                    0.0,
                    0.333333
                ],
                "xyz": [
                    3.36431887221672,
                    0.0,
                    2.2195255271389196
                ],
                "label": "Zn",
                "properties": {}
            },
            {
                "species": [
                    {
                        "element": "O",
                        "occu": 1
                    }
                ],
                "abc": [
                    0.1346744,
                    0.42593829,
                    0.87169912
                ],
                "xyz": [
                    -0.45628570151474634,
                    2.1497180631814357,
                    5.804281150754749
                ],
                "label": "O",
                "properties": {}
            },
            {
                "species": [
                    {
                        "element": "O",
                        "occu": 1
                    }
                ],
                "abc": [
                    0.57406171,
                    0.7087361,
                    0.20503212
                ],
                "xyz": [
                    1.2803295517654751,
                    3.577003598804804,
                    1.3652234378936687
                ],
                "label": "O",
                "properties": {}
            },
            {
                "species": [
                    {
                        "element": "O",
                        "occu": 1
                    }
                ],
                "abc": [
                    0.2912639,
                    0.8653256,
                    0.53836612
                ],
                "xyz": [
                    -0.8240437628338082,
                    4.367313567543584,
                    3.5847556236158282
                ],
                "label": "O",
                "properties": {}
            },
            {
                "species": [
                    {
                        "element": "O",
                        "occu": 1
                    }
                ],
                "abc": [
                    0.7087361,
                    0.57406171,
                    0.79496788
                ],
                "xyz": [
                    2.457611600207306,
                    2.8972995768185643,
                    5.29335980210633
                ],
                "label": "O",
                "properties": {}
            },
            {
                "species": [
                    {
                        "element": "O",
                        "occu": 1
                    }
                ],
                "abc": [
                    0.42593829,
                    0.1346744,
                    0.12830088
                ],
                "xyz": [
                    2.089853538888245,
                    0.679704072456416,
                    0.8543020892452512
                ],
                "label": "O",
                "properties": {}
            },
            {
                "species": [
                    {
                        "element": "O",
                        "occu": 1
                    }
                ],
                "abc": [
                    0.8653256,
                    0.2912639,
                    0.46163388
                ],
                "xyz": [
                    4.194226853487528,
                    1.470014041195196,
                    3.073827616384171
                ],
                "label": "O",
                "properties": {}
            }
        ]
    },
    "spacegroup": {
        "source": "spglib",
        "symbol": "P3_121",
        "number": 152,
        "point_group": "32",
        "crystal_system": "trigonal",
        "hall": "P 31 2\""
    },
    "dielectric": {
        "epsilon_ionic": [
            [
                8.31929551,
                -0.00025552,
                0.0
            ],
            [
                -0.00025552,
                8.31847597,
                -8.97e-06
            ],
            [
                0.0,
                -8.97e-06,
                9.19810798
            ]
        ],
        "epsilon_ionic_avg": 8.611959820000001,
        "epsilon_ionic_eig": [
            8.319368649843138,
            8.318402830065393,
            9.198107980091471
        ],
        "epsilon_electronic": [
            [
                4.0756291,
                0.0,
                0.0
            ],
            [
                -0.0,
                4.07562966,
                0.0
            ],
            [
                0.0,
                0.0,
                4.15293927
            ]
        ],
        "epsilon_electronic_avg": 4.101399343333333,
        "epsilon_electronic_eig": [
            4.0756291,
            4.07562966,
            4.15293927
        ]
    },
    "phonon": {
        "lowest_freq": -0.05565938103405379,
        "frequency": [
            -0.05565938103405379,
            -0.055659377082157055,
            -0.05046312682904295,
            2.5575237850203045,
            2.557523804132552,
            2.9281030749156045,
            2.992300707561228,
            2.9923007157288604,
            3.376170277924213,
            4.205260296256524,
            4.3526625907603895,
            4.354855762607318,
            4.354855998316738,
            5.12907220406139,
            5.1290722278863745,
            5.892843946794718,
            5.892843988268772,
            6.643178808834897,
            6.643178955993439,
            6.686134263028513,
            7.062125023371387,
            7.1824976697919976,
            7.904004886325357,
            7.934578235637261,
            7.934578297241073,
            8.104077275822869,
            8.104077517084269,
            8.355156409328794,
            9.801770513014805,
            9.801770562883373,
            15.048212634065267,
            15.184727012581092,
            15.184727254008017,
            16.125781930988857,
            18.48435867715486,
            18.484359073814762
        ]
    },
    "born_effective_charge": {
        "avg_abs_trace": 2.2543955555555555,
        "tensors": [
            [
                [
                    2.29852,
                    0.0,
                    0.0
                ],
                [
                    -7e-05,
                    2.94087,
                    -0.0295
                ],
                [
                    2e-05,
                    -0.0116,
                    2.64165
                ]
            ],
            [
                [
                    2.78044,
                    0.27813,
                    0.02566
                ],
                [
                    0.27798,
                    2.45913,
                    0.01467
                ],
                [
                    0.01003,
                    0.00582,
                    2.64165
                ]
            ],
            [
                [
                    2.78044,
                    -0.27813,
                    -0.02566
                ],
                [
                    -0.27818,
                    2.45906,
                    0.01479
                ],
                [
                    -0.01006,
                    0.00578,
                    2.64165
                ]
            ],
            [
                [
                    1.96536,
                    -0.16666,
                    0.09548
                ],
                [
                    -0.16661,
                    1.77286,
                    -0.05506
                ],
                [
                    0.19344,
                    -0.11168,
                    1.90705
                ]
            ],
            [
                [
                    1.96536,
                    0.16666,
                    -0.09548
                ],
                [
                    0.16662,
                    1.77285,
                    -0.05515
                ],
                [
                    -0.19344,
                    -0.11169,
                    1.90705
                ]
            ],
            [
                [
                    1.67669,
                    0.0,
                    0.0
                ],
                [
                    -8e-05,
                    2.06145,
                    0.11022
                ],
                [
                    -1e-05,
                    0.22337,
                    1.90705
                ]
            ],
            [
                [
                    -2.6022,
                    -0.07355,
                    -0.22443
                ],
                [
                    -0.19155,
                    -1.8865,
                    -0.12739
                ],
                [
                    -0.21143,
                    -0.06184,
                    -2.27434
                ]
            ],
            [
                [
                    -2.18038,
                    0.43508,
                    0.22253
                ],
                [
                    0.31696,
                    -2.30838,
                    -0.13066
                ],
                [
                    0.15927,
                    -0.15218,
                    -2.27434
                ]
            ],
            [
                [
                    -1.95083,
                    -0.18442,
                    0.00201
                ],
                [
                    -0.30257,
                    -2.53817,
                    0.25796
                ],
                [
                    0.05216,
                    0.21403,
                    -2.27434
                ]
            ],
            [
                [
                    -2.6022,
                    0.07355,
                    0.22443
                ],
                [
                    0.19175,
                    -1.8867,
                    -0.12735
                ],
                [
                    0.21136,
                    -0.06176,
                    -2.27435
                ]
            ],
            [
                [
                    -1.95083,
                    0.18442,
                    -0.00201
                ],
                [
                    0.30275,
                    -2.53799,
                    0.25812
                ],
                [
                    -0.0522,
                    0.21392,
                    -2.27435
                ]
            ],
            [
                [
                    -2.18038,
                    -0.43508,
                    -0.22253
                ],
                [
                    -0.31701,
                    -2.30848,
                    -0.13065
                ],
                [
                    -0.15917,
                    -0.15217,
                    -2.27435
                ]
            ]
        ]
    },
    "band_gap": 2.6897,
    "is_direct": false,
    "formula": "BaZnO2"
}