{
    "mp_id": "mp-4757",
    "nelements": 3,
    "nsites": 12,
    "elements": [
        "K",
        "O",
        "Re"
    ],
    "structure": {
        "@module": "pymatgen.core.structure",
        "@class": "Structure",
        "charge": null,
        "lattice": {
            "matrix": [
                [
                    -2.87275821,
                    2.87275824,
                    6.28580557
                ],
                [
                    2.87275821,
                    -2.87275824,
                    6.28580557
                ],
                [
                    2.87275824,
                    2.87275821,
                    -6.28580557
                ]
            ],
            "a": 7.484439277758443,
            "b": 7.484439277758443,
            "c": 7.484439277758443,
            "alpha": 134.85765338123667,
            "beta": 134.85765338123667,
            "gamma": 65.75145460248275,
            "volume": 207.50047169579648
        },
        "sites": [
            {
                "species": [
                    {
                        "element": "K",
                        "occu": 1
                    }
                ],
                "abc": [
                    0.5,
                    0.5,
                    0.0
                ],
                "xyz": [
                    0.0,
                    0.0,
                    6.28580557
                ],
                "label": "K",
                "properties": {}
            },
            {
                "species": [
                    {
                        "element": "K",
                        "occu": 1
                    }
                ],
                "abc": [
                    0.25,
                    0.75,
                    0.5
                ],
                "xyz": [
                    2.872758225,
                    -1.500000013088254e-08,
                    3.142902785
                ],
                "label": "K",
                "properties": {}
            },
            {
                "species": [
                    {
                        "element": "Re",
                        "occu": 1
                    }
                ],
                "abc": [
                    0.75,
                    0.25,
                    0.5
                ],
                "xyz": [
                    1.500000013088254e-08,
                    2.872758225,
                    3.142902785
                ],
                "label": "Re",
                "properties": {}
            },
            {
                "species": [
                    {
                        "element": "Re",
                        "occu": 1
                    }
                ],
                "abc": [
                    0.0,
                    0.0,
                    0.0
                ],
                "xyz": [
                    0.0,
                    0.0,
                    0.0
                ],
                "label": "Re",
                "properties": {}
            },
            {
                "species": [
                    {
                        "element": "O",
                        "occu": 1
                    }
                ],
                "abc": [
                    0.70445498,
                    0.79498003,
                    0.65790783
                ],
                "xyz": [
                    2.15006672039118,
                    1.6299535367418725,
                    5.2896762353503926
                ],
                "label": "O",
                "properties": {}
            },
            {
                "species": [
                    {
                        "element": "O",
                        "occu": 1
                    }
                ],
                "abc": [
                    0.79654715,
                    0.95445498,
                    0.40947494
                ],
                "xyz": [
                    1.6299535230142899,
                    0.7226914758812382,
                    8.432579083208447
                ],
                "label": "O",
                "properties": {}
            },
            {
                "species": [
                    {
                        "element": "O",
                        "occu": 1
                    }
                ],
                "abc": [
                    0.54498003,
                    0.38707221,
                    0.59052506
                ],
                "xyz": [
                    1.2428047457132925,
                    2.1500667053911795,
                    2.1467734503503917
                ],
                "label": "O",
                "properties": {}
            },
            {
                "species": [
                    {
                        "element": "O",
                        "occu": 1
                    }
                ],
                "abc": [
                    0.13707221,
                    0.04654715,
                    0.34209217
                ],
                "xyz": [
                    0.7226914908812381,
                    1.24280470198571,
                    -0.9961292717915518
                ],
                "label": "O",
                "properties": {}
            },
            {
                "species": [
                    {
                        "element": "O",
                        "occu": 1
                    }
                ],
                "abc": [
                    0.61292779,
                    0.20345285,
                    0.15790783
                ],
                "xyz": [
                    -0.7226914758812384,
                    1.6299535230142899,
                    4.139032056791551
                ],
                "label": "O",
                "properties": {}
            },
            {
                "species": [
                    {
                        "element": "O",
                        "occu": 1
                    }
                ],
                "abc": [
                    0.20501997,
                    0.86292779,
                    0.90947494
                ],
                "xyz": [
                    4.502711719286708,
                    0.7226914896088208,
                    0.9961293346496074
                ],
                "label": "O",
                "properties": {}
            },
            {
                "species": [
                    {
                        "element": "O",
                        "occu": 1
                    }
                ],
                "abc": [
                    0.95345285,
                    0.29554502,
                    0.09052506
                ],
                "xyz": [
                    -1.62995350801429,
                    2.150066749118762,
                    7.281934841791552
                ],
                "label": "O",
                "properties": {}
            },
            {
                "species": [
                    {
                        "element": "O",
                        "occu": 1
                    }
                ],
                "abc": [
                    0.04554502,
                    0.45501997,
                    0.84209217
                ],
                "xyz": [
                    3.5954497446088203,
                    1.242804658258128,
                    -2.1467734503503926
                ],
                "label": "O",
                "properties": {}
            }
        ]
    },
    "spacegroup": {
        "source": "spglib",
        "symbol": "I4_1/a",
        "number": 88,
        "point_group": "4/m",
        "crystal_system": "tetragonal",
        "hall": "I 4bw -1bw"
    },
    "dielectric": {
        "epsilon_ionic": [
            [
                2.83564696,
                -0.00019647,
                -1e-07
            ],
            [
                -0.00019647,
                2.83416382,
                -3.8e-07
            ],
            [
                -1e-07,
                -3.8e-07,
                2.09304884
            ]
        ],
        "epsilon_ionic_avg": 2.587619873333333,
        "epsilon_ionic_eig": [
            2.835672544825187,
            2.83413823517502,
            2.0930488399997915
        ],
        "epsilon_electronic": [
            [
                2.68982372,
                0.00024197,
                0.0
            ],
            [
                -0.00024197,
                2.68982372,
                0.0
            ],
            [
                0.0,
                0.0,
                2.85002907
            ]
        ],
        "epsilon_electronic_avg": 2.7432255033333335,
        "epsilon_electronic_eig": [
            2.68982372,
            2.68982372,
            2.85002907
        ]
    },
    "phonon": {
        "lowest_freq": -0.10908522075798169,
        "frequency": [
            -0.10908522075798169,
            -0.07902316787772232,
            -0.07902316787772232,
            1.3193220263787862,
            2.0462609697414806,
            2.0462609697414806,
            2.5921104121160154,
            2.5921104121160154,
            3.232861432927453,
            3.232861432927453,
            3.53356903407506,
            3.53356903407506,
            3.6093500791708357,
            3.661693420480277,
            4.150584541035086,
            4.329572033053674,
            4.359372847922176,
            4.359372847922176,
            8.482290182953781,
            8.888798600478394,
            8.888798600478394,
            9.33198744867533,
            9.66391330370855,
            10.043899456692627,
            10.043899456692627,
            10.22012828176189,
            10.322185514503806,
            10.478731992033843,
            26.871817552402266,
            26.927789861124477,
            26.927789861124477,
            27.185743430905877,
            27.185743430905877,
            27.6458500137235,
            28.746730814979188,
            28.80045221122923
        ]
    },
    "born_effective_charge": {
        "avg_abs_trace": 1.528695,
        "tensors": [
            [
                [
                    1.40531,
                    0.06433,
                    4e-05
                ],
                [
                    -0.06432,
                    1.40513,
                    -8e-05
                ],
                [
                    0.0,
                    -0.0,
                    1.29782
                ]
            ],
            [
                [
                    1.40531,
                    0.06433,
                    -4e-05
                ],
                [
                    -0.06432,
                    1.40513,
                    8e-05
                ],
                [
                    0.0,
                    -0.0,
                    1.29782
                ]
            ],
            [
                [
                    3.01203,
                    -0.15861,
                    -0.00016
                ],
                [
                    0.15831,
                    3.01169,
                    0.00117
                ],
                [
                    0.0,
                    -0.0,
                    3.62629
                ]
            ],
            [
                [
                    3.01203,
                    -0.15861,
                    0.00016
                ],
                [
                    0.15831,
                    3.01169,
                    -0.00117
                ],
                [
                    0.0,
                    -0.0,
                    3.62629
                ]
            ],
            [
                [
                    -0.89413,
                    -0.4644,
                    -0.49072
                ],
                [
                    -0.51196,
                    -1.31418,
                    -0.58703
                ],
                [
                    -0.43586,
                    -0.68678,
                    -1.2314
                ]
            ],
            [
                [
                    -1.31493,
                    0.51177,
                    -0.58702
                ],
                [
                    0.4651,
                    -0.89386,
                    0.48982
                ],
                [
                    -0.68678,
                    0.43586,
                    -1.2314
                ]
            ],
            [
                [
                    -1.3143,
                    0.51257,
                    0.58784
                ],
                [
                    0.46569,
                    -0.89375,
                    -0.49084
                ],
                [
                    0.68678,
                    -0.43586,
                    -1.2314
                ]
            ],
            [
                [
                    -0.89397,
                    -0.46566,
                    0.49009
                ],
                [
                    -0.51282,
                    -1.31502,
                    0.58822
                ],
                [
                    0.43586,
                    0.68678,
                    -1.2314
                ]
            ],
            [
                [
                    -0.89413,
                    -0.4644,
                    0.49072
                ],
                [
                    -0.51196,
                    -1.31418,
                    0.58703
                ],
                [
                    0.43563,
                    0.68757,
                    -1.23065
                ]
            ],
            [
                [
                    -1.31493,
                    0.51177,
                    0.58702
                ],
                [
                    0.4651,
                    -0.89386,
                    -0.48982
                ],
                [
                    0.68757,
                    -0.43563,
                    -1.23065
                ]
            ],
            [
                [
                    -1.3143,
                    0.51257,
                    -0.58784
                ],
                [
                    0.46569,
                    -0.89375,
                    0.49084
                ],
                [
                    -0.68757,
                    0.43563,
                    -1.23065
                ]
            ],
            [
                [
                    -0.89397,
                    -0.46566,
                    -0.49009
                ],
                [
                    -0.51282,
                    -1.31502,
                    -0.58822
                ],
                [
                    -0.43563,
                    -0.68757,
                    -1.23065
                ]
            ]
        ]
    },
    "band_gap": 4.1307,
    "is_direct": false,
    "formula": "KReO4"
}