{
    "mp_id": "mp-4974",
    "nelements": 3,
    "nsites": 22,
    "elements": [
        "La",
        "O",
        "Zr"
    ],
    "structure": {
        "@module": "pymatgen.core.structure",
        "@class": "Structure",
        "charge": null,
        "lattice": {
            "matrix": [
                [
                    0.0,
                    5.395207,
                    5.395207
                ],
                [
                    5.395207,
                    0.0,
                    5.395207
                ],
                [
                    5.395207,
                    5.395207,
                    0.0
                ]
            ],
            "a": 7.629974911210259,
            "b": 7.629974911210259,
            "c": 7.629974911210259,
            "alpha": 60.00000000000001,
            "beta": 60.00000000000001,
            "gamma": 60.00000000000001,
            "volume": 314.09016082008986
        },
        "sites": [
            {
                "species": [
                    {
                        "element": "La",
                        "occu": 1
                    }
                ],
                "abc": [
                    0.125,
                    0.125,
                    0.625
                ],
                "xyz": [
                    4.04640525,
                    4.04640525,
                    1.34880175
                ],
                "label": "La",
                "properties": {}
            },
            {
                "species": [
                    {
                        "element": "La",
                        "occu": 1
                    }
                ],
                "abc": [
                    0.125,
                    0.625,
                    0.125
                ],
                "xyz": [
                    4.04640525,
                    1.34880175,
                    4.04640525
                ],
                "label": "La",
                "properties": {}
            },
            {
                "species": [
                    {
                        "element": "La",
                        "occu": 1
                    }
                ],
                "abc": [
                    0.625,
                    0.125,
                    0.125
                ],
                "xyz": [
                    1.34880175,
                    4.04640525,
                    4.04640525
                ],
                "label": "La",
                "properties": {}
            },
            {
                "species": [
                    {
                        "element": "La",
                        "occu": 1
                    }
                ],
                "abc": [
                    0.125,
                    0.125,
                    0.125
                ],
                "xyz": [
                    1.34880175,
                    1.34880175,
                    1.34880175
                ],
                "label": "La",
                "properties": {}
            },
            {
                "species": [
                    {
                        "element": "Zr",
                        "occu": 1
                    }
                ],
                "abc": [
                    0.625,
                    0.625,
                    0.125
                ],
                "xyz": [
                    4.04640525,
                    4.04640525,
                    6.74400875
                ],
                "label": "Zr",
                "properties": {}
            },
            {
                "species": [
                    {
                        "element": "Zr",
                        "occu": 1
                    }
                ],
                "abc": [
                    0.625,
                    0.125,
                    0.625
                ],
                "xyz": [
                    4.04640525,
                    6.74400875,
                    4.04640525
                ],
                "label": "Zr",
                "properties": {}
            },
            {
                "species": [
                    {
                        "element": "Zr",
                        "occu": 1
                    }
                ],
                "abc": [
                    0.125,
                    0.625,
                    0.625
                ],
                "xyz": [
                    6.74400875,
                    4.04640525,
                    4.04640525
                ],
                "label": "Zr",
                "properties": {}
            },
            {
                "species": [
                    {
                        "element": "Zr",
                        "occu": 1
                    }
                ],
                "abc": [
                    0.625,
                    0.625,
                    0.625
                ],
                "xyz": [
                    6.74400875,
                    6.74400875,
                    6.74400875
                ],
                "label": "Zr",
                "properties": {}
            },
            {
                "species": [
                    {
                        "element": "O",
                        "occu": 1
                    }
                ],
                "abc": [
                    0.25,
                    0.25,
                    0.25
                ],
                "xyz": [
                    2.6976035,
                    2.6976035,
                    2.6976035
                ],
                "label": "O",
                "properties": {}
            },
            {
                "species": [
                    {
                        "element": "O",
                        "occu": 1
                    }
                ],
                "abc": [
                    0.0,
                    0.0,
                    0.0
                ],
                "xyz": [
                    0.0,
                    0.0,
                    0.0
                ],
                "label": "O",
                "properties": {}
            },
            {
                "species": [
                    {
                        "element": "O",
                        "occu": 1
                    }
                ],
                "abc": [
                    0.540956,
                    0.959044,
                    0.540956
                ],
                "xyz": [
                    8.0928105,
                    5.837139195784,
                    8.0928105
                ],
                "label": "O",
                "properties": {}
            },
            {
                "species": [
                    {
                        "element": "O",
                        "occu": 1
                    }
                ],
                "abc": [
                    0.290956,
                    0.709044,
                    0.290956
                ],
                "xyz": [
                    5.395207,
                    3.139535695784,
                    5.395207
                ],
                "label": "O",
                "properties": {}
            },
            {
                "species": [
                    {
                        "element": "O",
                        "occu": 1
                    }
                ],
                "abc": [
                    0.540956,
                    0.540956,
                    0.959044
                ],
                "xyz": [
                    8.0928105,
                    8.0928105,
                    5.837139195784
                ],
                "label": "O",
                "properties": {}
            },
            {
                "species": [
                    {
                        "element": "O",
                        "occu": 1
                    }
                ],
                "abc": [
                    0.959044,
                    0.540956,
                    0.540956
                ],
                "xyz": [
                    5.837139195784,
                    8.0928105,
                    8.0928105
                ],
                "label": "O",
                "properties": {}
            },
            {
                "species": [
                    {
                        "element": "O",
                        "occu": 1
                    }
                ],
                "abc": [
                    0.540956,
                    0.959044,
                    0.959044
                ],
                "xyz": [
                    10.348481804216,
                    8.0928105,
                    8.0928105
                ],
                "label": "O",
                "properties": {}
            },
            {
                "species": [
                    {
                        "element": "O",
                        "occu": 1
                    }
                ],
                "abc": [
                    0.959044,
                    0.959044,
                    0.540956
                ],
                "xyz": [
                    8.0928105,
                    8.0928105,
                    10.348481804216
                ],
                "label": "O",
                "properties": {}
            },
            {
                "species": [
                    {
                        "element": "O",
                        "occu": 1
                    }
                ],
                "abc": [
                    0.959044,
                    0.540956,
                    0.959044
                ],
                "xyz": [
                    8.0928105,
                    10.348481804216,
                    8.0928105
                ],
                "label": "O",
                "properties": {}
            },
            {
                "species": [
                    {
                        "element": "O",
                        "occu": 1
                    }
                ],
                "abc": [
                    0.709044,
                    0.290956,
                    0.290956
                ],
                "xyz": [
                    3.139535695784,
                    5.395207,
                    5.395207
                ],
                "label": "O",
                "properties": {}
            },
            {
                "species": [
                    {
                        "element": "O",
                        "occu": 1
                    }
                ],
                "abc": [
                    0.290956,
                    0.709044,
                    0.709044
                ],
                "xyz": [
                    7.6508783042160005,
                    5.395207,
                    5.395207
                ],
                "label": "O",
                "properties": {}
            },
            {
                "species": [
                    {
                        "element": "O",
                        "occu": 1
                    }
                ],
                "abc": [
                    0.709044,
                    0.290956,
                    0.709044
                ],
                "xyz": [
                    5.395207,
                    7.6508783042160005,
                    5.395207
                ],
                "label": "O",
                "properties": {}
            },
            {
                "species": [
                    {
                        "element": "O",
                        "occu": 1
                    }
                ],
                "abc": [
                    0.290956,
                    0.290956,
                    0.709044
                ],
                "xyz": [
                    5.395207,
                    5.395207,
                    3.139535695784
                ],
                "label": "O",
                "properties": {}
            },
            {
                "species": [
                    {
                        "element": "O",
                        "occu": 1
                    }
                ],
                "abc": [
                    0.709044,
                    0.709044,
                    0.290956
                ],
                "xyz": [
                    5.395207,
                    5.395207,
                    7.6508783042160005
                ],
                "label": "O",
                "properties": {}
            }
        ]
    },
    "spacegroup": {
        "source": "spglib",
        "symbol": "Fd-3m",
        "number": 227,
        "point_group": "m-3m",
        "crystal_system": "cubic",
        "hall": "F 4d 2 3 -1d"
    },
    "dielectric": {
        "epsilon_ionic": [
            [
                19.94335358,
                0.0,
                0.0
            ],
            [
                0.0,
                19.99335918,
                -0.0
            ],
            [
                0.0,
                -0.0,
                19.94146549
            ]
        ],
        "epsilon_ionic_avg": 19.95939275,
        "epsilon_ionic_eig": [
            19.94335358,
            19.99335918,
            19.94146549
        ],
        "epsilon_electronic": [
            [
                4.65414789,
                -0.0,
                0.0
            ],
            [
                0.0,
                4.65414789,
                -0.0
            ],
            [
                0.0,
                -0.0,
                4.65414789
            ]
        ],
        "epsilon_electronic_avg": 4.65414789,
        "epsilon_electronic_eig": [
            4.65414789,
            4.65414789,
            4.65414789
        ]
    },
    "phonon": {
        "lowest_freq": -0.09880945514322298,
        "frequency": [
            -0.09880945514322298,
            -0.09880945514322298,
            -0.09880945514322298,
            1.8002469642326275,
            1.8002469642326275,
            1.8002469642326275,
            3.0032641330821988,
            3.0032641330821988,
            3.066090827380499,
            3.066090827380499,
            3.066090827380499,
            3.9958319077263993,
            3.9958319077263993,
            4.12563617001406,
            4.12563617001406,
            4.12563617001406,
            4.550646764133994,
            4.550646764133994,
            4.550646764133994,
            5.976666641355282,
            5.976666641355282,
            5.976666641355282,
            6.713118581737816,
            6.713118581737816,
            6.713118581737816,
            6.918412290845024,
            6.918412290845024,
            6.918412290845024,
            7.394351998139709,
            8.464971051267787,
            8.464971051267787,
            8.464971051267787,
            8.740917644156744,
            8.740917644156744,
            8.740917644156744,
            8.842071768377979,
            9.133797746712991,
            9.133797746712991,
            9.832811509041823,
            9.832811509041823,
            9.832811509041823,
            10.546406344191404,
            11.064459335199551,
            11.064459335199551,
            11.064459335199551,
            11.177922811406978,
            11.177922811406978,
            11.177922811406978,
            11.544834071887719,
            11.544834071887719,
            14.13727841169258,
            14.881656925860888,
            14.881656925860888,
            14.881656925860888,
            15.152441021284794,
            15.152441021284794,
            15.152441021284794,
            16.53544787518147,
            16.53544787518147,
            16.53544787518147,
            17.104256616825523,
            17.104256616825523,
            17.104256616825523,
            21.73161553354368,
            21.73161553354368,
            21.73161553354368
        ]
    },
    "born_effective_charge": {
        "avg_abs_trace": 3.439462424242423,
        "tensors": [
            [
                [
                    4.12031,
                    0.15138,
                    -0.15138
                ],
                [
                    0.14982,
                    4.12174,
                    -0.14982
                ],
                [
                    -0.15142,
                    -0.15142,
                    4.11988
                ]
            ],
            [
                [
                    4.12031,
                    -0.15138,
                    0.15138
                ],
                [
                    -0.14982,
                    4.12174,
                    -0.14982
                ],
                [
                    0.15142,
                    -0.15142,
                    4.11988
                ]
            ],
            [
                [
                    4.12031,
                    -0.15138,
                    -0.15138
                ],
                [
                    -0.14982,
                    4.12174,
                    0.14982
                ],
                [
                    -0.15142,
                    0.15142,
                    4.11988
                ]
            ],
            [
                [
                    4.12031,
                    0.15138,
                    0.15138
                ],
                [
                    0.14982,
                    4.12174,
                    0.14982
                ],
                [
                    0.15142,
                    0.15142,
                    4.11988
                ]
            ],
            [
                [
                    5.33449,
                    -0.38373,
                    0.38373
                ],
                [
                    -0.38453,
                    5.34481,
                    0.38453
                ],
                [
                    0.38379,
                    0.38379,
                    5.33434
                ]
            ],
            [
                [
                    5.33449,
                    0.38373,
                    -0.38373
                ],
                [
                    0.38453,
                    5.34481,
                    0.38453
                ],
                [
                    -0.38379,
                    0.38379,
                    5.33434
                ]
            ],
            [
                [
                    5.33449,
                    0.38373,
                    0.38373
                ],
                [
                    0.38453,
                    5.34481,
                    -0.38453
                ],
                [
                    0.38379,
                    -0.38379,
                    5.33434
                ]
            ],
            [
                [
                    5.33449,
                    -0.38373,
                    -0.38373
                ],
                [
                    -0.38453,
                    5.34481,
                    -0.38453
                ],
                [
                    -0.38379,
                    -0.38379,
                    5.33434
                ]
            ],
            [
                [
                    -2.7971,
                    0.0,
                    -0.0
                ],
                [
                    0.0,
                    -2.80043,
                    -0.0
                ],
                [
                    -0.0,
                    0.0,
                    -2.79804
                ]
            ],
            [
                [
                    -2.7971,
                    0.0,
                    -0.0
                ],
                [
                    -0.0,
                    -2.80043,
                    -0.0
                ],
                [
                    0.0,
                    0.0,
                    -2.79804
                ]
            ],
            [
                [
                    -2.80457,
                    1e-05,
                    -0.84935
                ],
                [
                    0.0,
                    -2.45192,
                    0.0
                ],
                [
                    -0.84849,
                    -0.00012,
                    -2.80379
                ]
            ],
            [
                [
                    -2.80457,
                    1e-05,
                    0.84935
                ],
                [
                    -0.0,
                    -2.45192,
                    -0.0
                ],
                [
                    0.84849,
                    -0.00012,
                    -2.80379
                ]
            ],
            [
                [
                    -2.80457,
                    -0.84935,
                    1e-05
                ],
                [
                    -0.84794,
                    -2.80718,
                    6e-05
                ],
                [
                    0.0,
                    0.0,
                    -2.44758
                ]
            ],
            [
                [
                    -2.44712,
                    0.0,
                    0.0
                ],
                [
                    6e-05,
                    -2.80718,
                    -0.84794
                ],
                [
                    -0.00012,
                    -0.84849,
                    -2.80379
                ]
            ],
            [
                [
                    -2.44709,
                    0.0,
                    -0.0
                ],
                [
                    -6e-05,
                    -2.80718,
                    0.84794
                ],
                [
                    0.00012,
                    0.84849,
                    -2.80379
                ]
            ],
            [
                [
                    -2.80457,
                    0.84935,
                    -1e-05
                ],
                [
                    0.84794,
                    -2.80718,
                    -6e-05
                ],
                [
                    -0.0,
                    -0.0,
                    -2.44766
                ]
            ],
            [
                [
                    -2.80457,
                    -1e-05,
                    0.84935
                ],
                [
                    -0.0,
                    -2.45202,
                    -0.0
                ],
                [
                    0.84849,
                    0.00012,
                    -2.80379
                ]
            ],
            [
                [
                    -2.44712,
                    -0.0,
                    -0.0
                ],
                [
                    6e-05,
                    -2.80718,
                    0.84794
                ],
                [
                    -0.00012,
                    0.84849,
                    -2.80379
                ]
            ],
            [
                [
                    -2.44709,
                    0.0,
                    -0.0
                ],
                [
                    -6e-05,
                    -2.80718,
                    -0.84794
                ],
                [
                    0.00012,
                    -0.84849,
                    -2.80379
                ]
            ],
            [
                [
                    -2.80457,
                    -1e-05,
                    -0.84935
                ],
                [
                    0.0,
                    -2.45202,
                    0.0
                ],
                [
                    -0.84849,
                    0.00012,
                    -2.80379
                ]
            ],
            [
                [
                    -2.80457,
                    0.84935,
                    1e-05
                ],
                [
                    0.84794,
                    -2.80718,
                    6e-05
                ],
                [
                    -0.0,
                    0.0,
                    -2.44758
                ]
            ],
            [
                [
                    -2.80457,
                    -0.84935,
                    -1e-05
                ],
                [
                    -0.84794,
                    -2.80718,
                    -6e-05
                ],
                [
                    0.0,
                    0.0,
                    -2.44766
                ]
            ]
        ]
    },
    "band_gap": 3.9783,
    "is_direct": true,
    "formula": "La2Zr2O7"
}