{
    "mp_id": "mp-4555",
    "nelements": 3,
    "nsites": 9,
    "elements": [
        "As",
        "Ca",
        "O"
    ],
    "structure": {
        "@module": "pymatgen.core.structure",
        "@class": "Structure",
        "charge": null,
        "lattice": {
            "matrix": [
                [
                    4.86901783,
                    0.0,
                    0.0
                ],
                [
                    -2.43450941,
                    4.21669324,
                    0.0
                ],
                [
                    0.0,
                    0.0,
                    5.07348534
                ]
            ],
            "a": 4.86901783,
            "b": 4.869018170806127,
            "c": 5.07348534,
            "alpha": 90.0,
            "beta": 90.0,
            "gamma": 120.00000441057317,
            "volume": 104.1645117201126
        },
        "sites": [
            {
                "species": [
                    {
                        "element": "Ca",
                        "occu": 1
                    }
                ],
                "abc": [
                    0.0,
                    0.0,
                    0.0
                ],
                "xyz": [
                    0.0,
                    0.0,
                    0.0
                ],
                "label": "Ca",
                "properties": {}
            },
            {
                "species": [
                    {
                        "element": "As",
                        "occu": 1
                    }
                ],
                "abc": [
                    0.333333,
                    0.666667,
                    0.5
                ],
                "xyz": [
                    -2.7645090800998418e-06,
                    2.8111302322310796,
                    2.53674267
                ],
                "label": "As",
                "properties": {}
            },
            {
                "species": [
                    {
                        "element": "As",
                        "occu": 1
                    }
                ],
                "abc": [
                    0.666667,
                    0.333333,
                    0.5
                ],
                "xyz": [
                    2.43451118450908,
                    1.4055630077689198,
                    2.53674267
                ],
                "label": "As",
                "properties": {}
            },
            {
                "species": [
                    {
                        "element": "O",
                        "occu": 1
                    }
                ],
                "abc": [
                    0.37615466,
                    0.37615466,
                    0.70548723
                ],
                "xyz": [
                    0.9157516869922371,
                    1.5861288120164982,
                    3.5792791189622086
                ],
                "label": "O",
                "properties": {}
            },
            {
                "species": [
                    {
                        "element": "O",
                        "occu": 1
                    }
                ],
                "abc": [
                    0.62384534,
                    0.0,
                    0.70548723
                ],
                "xyz": [
                    3.0375140836224124,
                    0.0,
                    3.5792791189622086
                ],
                "label": "O",
                "properties": {}
            },
            {
                "species": [
                    {
                        "element": "O",
                        "occu": 1
                    }
                ],
                "abc": [
                    0.0,
                    0.62384534,
                    0.70548723
                ],
                "xyz": [
                    -1.5187573506146494,
                    2.6305644279835017,
                    3.5792791189622086
                ],
                "label": "O",
                "properties": {}
            },
            {
                "species": [
                    {
                        "element": "O",
                        "occu": 1
                    }
                ],
                "abc": [
                    0.37615466,
                    0.0,
                    0.29451277
                ],
                "xyz": [
                    1.8315037463775876,
                    0.0,
                    1.4942062210377918
                ],
                "label": "O",
                "properties": {}
            },
            {
                "species": [
                    {
                        "element": "O",
                        "occu": 1
                    }
                ],
                "abc": [
                    0.0,
                    0.37615466,
                    0.29451277
                ],
                "xyz": [
                    -0.9157520593853505,
                    1.5861288120164982,
                    1.4942062210377918
                ],
                "label": "O",
                "properties": {}
            },
            {
                "species": [
                    {
                        "element": "O",
                        "occu": 1
                    }
                ],
                "abc": [
                    0.62384534,
                    0.62384534,
                    0.29451277
                ],
                "xyz": [
                    1.518756733007763,
                    2.6305644279835017,
                    1.4942062210377918
                ],
                "label": "O",
                "properties": {}
            }
        ]
    },
    "spacegroup": {
        "source": "spglib",
        "symbol": "P-31m",
        "number": 162,
        "point_group": "-3m",
        "crystal_system": "trigonal",
        "hall": "-P 3 2"
    },
    "dielectric": {
        "epsilon_ionic": [
            [
                7.70246125,
                -0.0,
                -2.812e-05
            ],
            [
                -0.0,
                7.70197122,
                0.0
            ],
            [
                -2.812e-05,
                0.0,
                4.50894088
            ]
        ],
        "epsilon_ionic_avg": 6.6377911166666665,
        "epsilon_ionic_eig": [
            7.702461250247605,
            4.508940879752394,
            7.70197122
        ],
        "epsilon_electronic": [
            [
                3.87237791,
                0.0,
                0.0
            ],
            [
                -0.0,
                3.8723774,
                0.0
            ],
            [
                0.0,
                0.0,
                3.14060991
            ]
        ],
        "epsilon_electronic_avg": 3.6284550733333334,
        "epsilon_electronic_eig": [
            3.87237791,
            3.8723774,
            3.14060991
        ]
    },
    "phonon": {
        "lowest_freq": -0.03961343472368019,
        "frequency": [
            -0.03961343472368019,
            -0.03360166475894751,
            -0.03360166254054425,
            5.6486598244711415,
            5.6486602138734385,
            6.072112957010418,
            6.283006958442327,
            7.966615734086256,
            7.966615979510548,
            10.159948489798092,
            10.315932812559433,
            10.31593316793223,
            11.1497691544241,
            12.092168423782352,
            12.092169110971279,
            15.344161276002305,
            15.34416165827169,
            15.749464223760851,
            15.74946468930074,
            17.534029407848735,
            17.534029407848735,
            18.539397191858104,
            19.590028918999753,
            20.27786599180066,
            21.417447493764328,
            21.77917276928746,
            21.77917276928746
        ]
    },
    "born_effective_charge": {
        "avg_abs_trace": 2.4568648148148147,
        "tensors": [
            [
                [
                    2.42043,
                    0.0,
                    2e-05
                ],
                [
                    0.0,
                    2.4204,
                    0.0
                ],
                [
                    -0.0,
                    0.0,
                    3.22298
                ]
            ],
            [
                [
                    4.88434,
                    2e-05,
                    3e-05
                ],
                [
                    0.0,
                    4.88412,
                    0.0
                ],
                [
                    -0.0,
                    -0.0,
                    2.78346
                ]
            ],
            [
                [
                    4.88434,
                    -2e-05,
                    3e-05
                ],
                [
                    0.0,
                    4.88414,
                    0.0
                ],
                [
                    -0.0,
                    0.0,
                    2.78346
                ]
            ],
            [
                [
                    -2.22351,
                    0.33261,
                    0.17492
                ],
                [
                    0.33253,
                    -1.83943,
                    0.30295
                ],
                [
                    0.2189,
                    0.37914,
                    -1.46499
                ]
            ],
            [
                [
                    -1.64762,
                    0.0,
                    -0.34982
                ],
                [
                    -0.00023,
                    -2.41535,
                    3e-05
                ],
                [
                    -0.43779,
                    -0.0,
                    -1.46499
                ]
            ],
            [
                [
                    -2.22351,
                    -0.33261,
                    0.17492
                ],
                [
                    -0.33235,
                    -1.83955,
                    -0.30294
                ],
                [
                    0.2189,
                    -0.37914,
                    -1.46499
                ]
            ],
            [
                [
                    -1.64763,
                    0.0,
                    -0.34983
                ],
                [
                    0.00023,
                    -2.41535,
                    -3e-05
                ],
                [
                    -0.43776,
                    -0.0,
                    -1.46498
                ]
            ],
            [
                [
                    -2.22342,
                    -0.33258,
                    0.17487
                ],
                [
                    -0.33253,
                    -1.83943,
                    -0.30295
                ],
                [
                    0.21888,
                    -0.37912,
                    -1.46498
                ]
            ],
            [
                [
                    -2.22342,
                    0.33258,
                    0.17487
                ],
                [
                    0.33235,
                    -1.83955,
                    0.30294
                ],
                [
                    0.21888,
                    0.37912,
                    -1.46498
                ]
            ]
        ]
    },
    "band_gap": 3.5509999999999997,
    "is_direct": false,
    "formula": "Ca(AsO3)2"
}