{
    "mp_id": "mp-4812",
    "nelements": 3,
    "nsites": 23,
    "elements": [
        "B",
        "O",
        "Zn"
    ],
    "structure": {
        "@module": "pymatgen.core.structure",
        "@class": "Structure",
        "charge": null,
        "lattice": {
            "matrix": [
                [
                    -3.7071954,
                    3.7071954,
                    3.7071954
                ],
                [
                    3.7071954,
                    -3.7071954,
                    3.7071954
                ],
                [
                    3.7071954,
                    3.7071954,
                    -3.7071954
                ]
            ],
            "a": 6.421050786385626,
            "b": 6.421050786385626,
            "c": 6.421050786385626,
            "alpha": 109.47122063449069,
            "beta": 109.47122063449069,
            "gamma": 109.47122063449069,
            "volume": 203.79636055801572
        },
        "sites": [
            {
                "species": [
                    {
                        "element": "Zn",
                        "occu": 1
                    }
                ],
                "abc": [
                    0.69575751,
                    0.69575751,
                    0.69575751
                ],
                "xyz": [
                    2.5793090405874537,
                    2.5793090405874537,
                    2.5793090405874537
                ],
                "label": "Zn",
                "properties": {}
            },
            {
                "species": [
                    {
                        "element": "Zn",
                        "occu": 1
                    }
                ],
                "abc": [
                    0.0,
                    0.30424249,
                    0.0
                ],
                "xyz": [
                    1.127886359412546,
                    -1.127886359412546,
                    1.127886359412546
                ],
                "label": "Zn",
                "properties": {}
            },
            {
                "species": [
                    {
                        "element": "Zn",
                        "occu": 1
                    }
                ],
                "abc": [
                    0.30424249,
                    0.0,
                    0.0
                ],
                "xyz": [
                    -1.127886359412546,
                    1.127886359412546,
                    1.127886359412546
                ],
                "label": "Zn",
                "properties": {}
            },
            {
                "species": [
                    {
                        "element": "Zn",
                        "occu": 1
                    }
                ],
                "abc": [
                    0.0,
                    0.0,
                    0.30424249
                ],
                "xyz": [
                    1.127886359412546,
                    1.127886359412546,
                    -1.127886359412546
                ],
                "label": "Zn",
                "properties": {}
            },
            {
                "species": [
                    {
                        "element": "B",
                        "occu": 1
                    }
                ],
                "abc": [
                    0.25,
                    0.5,
                    0.75
                ],
                "xyz": [
                    3.7071954,
                    1.8535977,
                    0.0
                ],
                "label": "B",
                "properties": {}
            },
            {
                "species": [
                    {
                        "element": "B",
                        "occu": 1
                    }
                ],
                "abc": [
                    0.75,
                    0.25,
                    0.5
                ],
                "xyz": [
                    0.0,
                    3.7071954,
                    1.8535977
                ],
                "label": "B",
                "properties": {}
            },
            {
                "species": [
                    {
                        "element": "B",
                        "occu": 1
                    }
                ],
                "abc": [
                    0.25,
                    0.75,
                    0.5
                ],
                "xyz": [
                    3.7071954,
                    0.0,
                    1.8535977
                ],
                "label": "B",
                "properties": {}
            },
            {
                "species": [
                    {
                        "element": "B",
                        "occu": 1
                    }
                ],
                "abc": [
                    0.5,
                    0.75,
                    0.25
                ],
                "xyz": [
                    1.8535977,
                    0.0,
                    3.7071954
                ],
                "label": "B",
                "properties": {}
            },
            {
                "species": [
                    {
                        "element": "B",
                        "occu": 1
                    }
                ],
                "abc": [
                    0.5,
                    0.25,
                    0.75
                ],
                "xyz": [
                    1.8535977,
                    3.7071954,
                    0.0
                ],
                "label": "B",
                "properties": {}
            },
            {
                "species": [
                    {
                        "element": "B",
                        "occu": 1
                    }
                ],
                "abc": [
                    0.75,
                    0.5,
                    0.25
                ],
                "xyz": [
                    0.0,
                    1.8535977,
                    3.7071954
                ],
                "label": "B",
                "properties": {}
            },
            {
                "species": [
                    {
                        "element": "O",
                        "occu": 1
                    }
                ],
                "abc": [
                    0.72773714,
                    0.72773714,
                    0.27784223
                ],
                "xyz": [
                    1.030015436981742,
                    1.030015436981742,
                    4.36571211865257
                ],
                "label": "O",
                "properties": {}
            },
            {
                "species": [
                    {
                        "element": "O",
                        "occu": 1
                    }
                ],
                "abc": [
                    0.27226286,
                    0.55010509,
                    0.0
                ],
                "xyz": [
                    1.030015436981742,
                    -1.030015436981742,
                    3.04867868134743
                ],
                "label": "O",
                "properties": {}
            },
            {
                "species": [
                    {
                        "element": "O",
                        "occu": 1
                    }
                ],
                "abc": [
                    0.44989491,
                    0.72215777,
                    0.44989491
                ],
                "xyz": [
                    2.677179963018258,
                    0.65851671865257,
                    2.6771799630182582
                ],
                "label": "O",
                "properties": {}
            },
            {
                "species": [
                    {
                        "element": "O",
                        "occu": 1
                    }
                ],
                "abc": [
                    0.55010509,
                    0.27226286,
                    0.0
                ],
                "xyz": [
                    -1.030015436981742,
                    1.030015436981742,
                    3.04867868134743
                ],
                "label": "O",
                "properties": {}
            },
            {
                "species": [
                    {
                        "element": "O",
                        "occu": 1
                    }
                ],
                "abc": [
                    0.0,
                    0.55010509,
                    0.27226286
                ],
                "xyz": [
                    3.04867868134743,
                    -1.030015436981742,
                    1.030015436981742
                ],
                "label": "O",
                "properties": {}
            },
            {
                "species": [
                    {
                        "element": "O",
                        "occu": 1
                    }
                ],
                "abc": [
                    0.72215777,
                    0.44989491,
                    0.44989491
                ],
                "xyz": [
                    0.65851671865257,
                    2.677179963018258,
                    2.6771799630182582
                ],
                "label": "O",
                "properties": {}
            },
            {
                "species": [
                    {
                        "element": "O",
                        "occu": 1
                    }
                ],
                "abc": [
                    0.27784223,
                    0.72773714,
                    0.72773714
                ],
                "xyz": [
                    4.36571211865257,
                    1.030015436981742,
                    1.030015436981742
                ],
                "label": "O",
                "properties": {}
            },
            {
                "species": [
                    {
                        "element": "O",
                        "occu": 1
                    }
                ],
                "abc": [
                    0.72773714,
                    0.27784223,
                    0.72773714
                ],
                "xyz": [
                    1.030015436981742,
                    4.36571211865257,
                    1.030015436981742
                ],
                "label": "O",
                "properties": {}
            },
            {
                "species": [
                    {
                        "element": "O",
                        "occu": 1
                    }
                ],
                "abc": [
                    0.27226286,
                    0.0,
                    0.55010509
                ],
                "xyz": [
                    1.030015436981742,
                    3.04867868134743,
                    -1.030015436981742
                ],
                "label": "O",
                "properties": {}
            },
            {
                "species": [
                    {
                        "element": "O",
                        "occu": 1
                    }
                ],
                "abc": [
                    0.0,
                    0.27226286,
                    0.55010509
                ],
                "xyz": [
                    3.04867868134743,
                    1.030015436981742,
                    -1.030015436981742
                ],
                "label": "O",
                "properties": {}
            },
            {
                "species": [
                    {
                        "element": "O",
                        "occu": 1
                    }
                ],
                "abc": [
                    0.44989491,
                    0.44989491,
                    0.72215777
                ],
                "xyz": [
                    2.677179963018258,
                    2.677179963018258,
                    0.65851671865257
                ],
                "label": "O",
                "properties": {}
            },
            {
                "species": [
                    {
                        "element": "O",
                        "occu": 1
                    }
                ],
                "abc": [
                    0.55010509,
                    0.0,
                    0.27226286
                ],
                "xyz": [
                    -1.030015436981742,
                    3.04867868134743,
                    1.030015436981742
                ],
                "label": "O",
                "properties": {}
            },
            {
                "species": [
                    {
                        "element": "O",
                        "occu": 1
                    }
                ],
                "abc": [
                    0.0,
                    0.0,
                    0.0
                ],
                "xyz": [
                    0.0,
                    0.0,
                    0.0
                ],
                "label": "O",
                "properties": {}
            }
        ]
    },
    "spacegroup": {
        "source": "spglib",
        "symbol": "I-43m",
        "number": 217,
        "point_group": "-43m",
        "crystal_system": "cubic",
        "hall": "I -4 2 3"
    },
    "dielectric": {
        "epsilon_ionic": [
            [
                3.94135936,
                0.0,
                0.0
            ],
            [
                0.0,
                3.94136804,
                0.0
            ],
            [
                0.0,
                0.0,
                3.94127341
            ]
        ],
        "epsilon_ionic_avg": 3.9413336033333337,
        "epsilon_ionic_eig": [
            3.94135936,
            3.94136804,
            3.94127341
        ],
        "epsilon_electronic": [
            [
                3.20641393,
                0.0,
                -0.0
            ],
            [
                -0.0,
                3.20641393,
                -0.0
            ],
            [
                0.0,
                -0.0,
                3.20641393
            ]
        ],
        "epsilon_electronic_avg": 3.20641393,
        "epsilon_electronic_eig": [
            3.20641393,
            3.20641393,
            3.20641393
        ]
    },
    "phonon": {
        "lowest_freq": -0.06569278034936563,
        "frequency": [
            -0.06569278034936563,
            -0.06569278034936563,
            -0.06569278034936563,
            4.177673876165641,
            4.177673876165641,
            4.177673876165641,
            5.452540301460584,
            5.452540301460584,
            5.454584235836853,
            5.454584235836853,
            5.454584235836853,
            6.0524204825757435,
            6.0524204825757435,
            6.0524204825757435,
            7.501027191447894,
            8.337226559966298,
            8.337226559966298,
            8.337226559966298,
            8.47428538464718,
            8.47428538464718,
            8.47428538464718,
            11.916513495924367,
            12.028749266026212,
            12.028749266026212,
            12.321874610982837,
            13.381027441918775,
            13.381027441918775,
            13.381027441918775,
            13.648107779222963,
            13.648107779222963,
            13.648107779222963,
            13.739370523809988,
            13.739370523809988,
            13.739370523809988,
            19.166918220965094,
            19.166918220965094,
            19.166918220965094,
            19.32663202379426,
            19.32663202379426,
            19.32663202379426,
            20.93333865859053,
            20.93333865859053,
            20.93333865859053,
            21.390505558307016,
            21.390505558307016,
            21.951089931508555,
            23.68462480526579,
            23.68462480526579,
            23.68462480526579,
            24.873486138963425,
            24.873486138963425,
            27.055645281315783,
            27.568078714270563,
            27.568078714270563,
            27.568078714270563,
            27.69327816537183,
            27.69327816537183,
            27.69327816537183,
            31.044282037429877,
            31.044282037429877,
            31.044282037429877,
            31.871734635977003,
            31.871734635977003,
            31.871734635977003,
            31.892498912222454,
            31.892498912222454,
            31.892498912222454,
            32.12253572028115,
            32.12253572028115
        ]
    },
    "born_effective_charge": {
        "avg_abs_trace": 1.9961821739130432,
        "tensors": [
            [
                [
                    2.07568,
                    0.07841,
                    0.07841
                ],
                [
                    0.0784,
                    2.07572,
                    0.0784
                ],
                [
                    0.07839,
                    0.07839,
                    2.07572
                ]
            ],
            [
                [
                    2.07563,
                    -0.07846,
                    0.07846
                ],
                [
                    -0.0784,
                    2.07572,
                    -0.0784
                ],
                [
                    0.07846,
                    -0.07846,
                    2.07561
                ]
            ],
            [
                [
                    2.07568,
                    -0.07841,
                    -0.07841
                ],
                [
                    -0.07846,
                    2.07567,
                    0.07846
                ],
                [
                    -0.07846,
                    0.07846,
                    2.07561
                ]
            ],
            [
                [
                    2.07563,
                    0.07846,
                    -0.07846
                ],
                [
                    0.07846,
                    2.07567,
                    -0.07846
                ],
                [
                    -0.07839,
                    -0.07839,
                    2.07572
                ]
            ],
            [
                [
                    2.39765,
                    3e-05,
                    -0.00131
                ],
                [
                    0.0,
                    2.53152,
                    0.0
                ],
                [
                    0.0014,
                    -2e-05,
                    2.39755
                ]
            ],
            [
                [
                    2.39765,
                    0.00131,
                    -3e-05
                ],
                [
                    -0.00138,
                    2.3976,
                    1e-05
                ],
                [
                    0.0,
                    0.0,
                    2.53149
                ]
            ],
            [
                [
                    2.39765,
                    -0.00131,
                    3e-05
                ],
                [
                    0.00138,
                    2.3976,
                    -1e-05
                ],
                [
                    0.0,
                    0.0,
                    2.53149
                ]
            ],
            [
                [
                    2.53152,
                    -0.0,
                    -0.0
                ],
                [
                    -1e-05,
                    2.3976,
                    0.00138
                ],
                [
                    2e-05,
                    -0.0014,
                    2.39755
                ]
            ],
            [
                [
                    2.53152,
                    -0.0,
                    -0.0
                ],
                [
                    1e-05,
                    2.3976,
                    -0.00138
                ],
                [
                    -2e-05,
                    0.0014,
                    2.39755
                ]
            ],
            [
                [
                    2.39765,
                    -3e-05,
                    0.00131
                ],
                [
                    0.0,
                    2.53152,
                    0.0
                ],
                [
                    -0.0014,
                    2e-05,
                    2.39755
                ]
            ],
            [
                [
                    -1.78542,
                    0.67559,
                    -0.09225
                ],
                [
                    0.67559,
                    -1.7854,
                    -0.09229
                ],
                [
                    -0.031,
                    -0.031,
                    -1.70971
                ]
            ],
            [
                [
                    -1.78542,
                    -0.67559,
                    0.09225
                ],
                [
                    -0.6755,
                    -1.78546,
                    -0.09225
                ],
                [
                    0.03097,
                    -0.03097,
                    -1.70959
                ]
            ],
            [
                [
                    -1.78547,
                    0.09221,
                    0.67549
                ],
                [
                    0.03096,
                    -1.70973,
                    0.03096
                ],
                [
                    0.67552,
                    0.09229,
                    -1.78547
                ]
            ],
            [
                [
                    -1.78547,
                    -0.67549,
                    -0.09221
                ],
                [
                    -0.67559,
                    -1.7854,
                    0.09229
                ],
                [
                    -0.03097,
                    0.03097,
                    -1.70959
                ]
            ],
            [
                [
                    -1.70968,
                    -0.03102,
                    0.03102
                ],
                [
                    -0.09225,
                    -1.78546,
                    -0.6755
                ],
                [
                    0.09228,
                    -0.67556,
                    -1.78537
                ]
            ],
            [
                [
                    -1.70973,
                    0.03097,
                    0.03097
                ],
                [
                    0.09225,
                    -1.78546,
                    0.6755
                ],
                [
                    0.09229,
                    0.67552,
                    -1.78547
                ]
            ],
            [
                [
                    -1.70973,
                    -0.03097,
                    -0.03097
                ],
                [
                    -0.09229,
                    -1.7854,
                    0.67559
                ],
                [
                    -0.09228,
                    0.67556,
                    -1.78537
                ]
            ],
            [
                [
                    -1.78542,
                    -0.09225,
                    0.67559
                ],
                [
                    -0.03096,
                    -1.70973,
                    -0.03096
                ],
                [
                    0.67556,
                    -0.09228,
                    -1.78537
                ]
            ],
            [
                [
                    -1.78542,
                    0.09225,
                    -0.67559
                ],
                [
                    0.03102,
                    -1.70967,
                    -0.03102
                ],
                [
                    -0.67552,
                    -0.09229,
                    -1.78547
                ]
            ],
            [
                [
                    -1.70968,
                    0.03102,
                    -0.03102
                ],
                [
                    0.09229,
                    -1.7854,
                    -0.67559
                ],
                [
                    -0.09229,
                    -0.67552,
                    -1.78547
                ]
            ],
            [
                [
                    -1.78547,
                    0.67549,
                    0.09221
                ],
                [
                    0.6755,
                    -1.78546,
                    0.09225
                ],
                [
                    0.031,
                    0.031,
                    -1.70971
                ]
            ],
            [
                [
                    -1.78547,
                    -0.09221,
                    -0.67549
                ],
                [
                    -0.03102,
                    -1.70967,
                    0.03102
                ],
                [
                    -0.67556,
                    0.09228,
                    -1.78537
                ]
            ],
            [
                [
                    -1.83386,
                    -0.0,
                    -0.0
                ],
                [
                    0.0,
                    -1.83393,
                    0.0
                ],
                [
                    0.0,
                    0.0,
                    -1.83388
                ]
            ]
        ]
    },
    "band_gap": 3.9379999999999997,
    "is_direct": false,
    "formula": "Zn4B6O13"
}