{
    "mp_id": "mp-4747",
    "nelements": 3,
    "nsites": 14,
    "elements": [
        "Ca",
        "O",
        "Sn"
    ],
    "structure": {
        "@module": "pymatgen.core.structure",
        "@class": "Structure",
        "charge": null,
        "lattice": {
            "matrix": [
                [
                    5.72926315,
                    0.0,
                    0.0
                ],
                [
                    0.0,
                    9.67356946,
                    0.0
                ],
                [
                    0.0,
                    0.0,
                    3.2639591
                ]
            ],
            "a": 5.72926315,
            "b": 9.67356946,
            "c": 3.2639591,
            "alpha": 90.0,
            "beta": 90.0,
            "gamma": 90.0,
            "volume": 180.8965285407881
        },
        "sites": [
            {
                "species": [
                    {
                        "element": "Ca",
                        "occu": 1
                    }
                ],
                "abc": [
                    0.07089606,
                    0.3181073,
                    0.5
                ],
                "xyz": [
                    0.406182184038189,
                    3.0772330622830575,
                    1.63197955
                ],
                "label": "Ca",
                "properties": {}
            },
            {
                "species": [
                    {
                        "element": "Ca",
                        "occu": 1
                    }
                ],
                "abc": [
                    0.92910394,
                    0.6818927,
                    0.5
                ],
                "xyz": [
                    5.323080965961811,
                    6.596336397716942,
                    1.63197955
                ],
                "label": "Ca",
                "properties": {}
            },
            {
                "species": [
                    {
                        "element": "Ca",
                        "occu": 1
                    }
                ],
                "abc": [
                    0.42910394,
                    0.8181073,
                    0.5
                ],
                "xyz": [
                    2.4584493909618113,
                    7.914017792283057,
                    1.63197955
                ],
                "label": "Ca",
                "properties": {}
            },
            {
                "species": [
                    {
                        "element": "Ca",
                        "occu": 1
                    }
                ],
                "abc": [
                    0.57089606,
                    0.1818927,
                    0.5
                ],
                "xyz": [
                    3.2708137590381896,
                    1.7595516677169418,
                    1.63197955
                ],
                "label": "Ca",
                "properties": {}
            },
            {
                "species": [
                    {
                        "element": "Sn",
                        "occu": 1
                    }
                ],
                "abc": [
                    0.0,
                    0.0,
                    0.0
                ],
                "xyz": [
                    0.0,
                    0.0,
                    0.0
                ],
                "label": "Sn",
                "properties": {}
            },
            {
                "species": [
                    {
                        "element": "Sn",
                        "occu": 1
                    }
                ],
                "abc": [
                    0.5,
                    0.5,
                    0.0
                ],
                "xyz": [
                    2.864631575,
                    4.83678473,
                    0.0
                ],
                "label": "Sn",
                "properties": {}
            },
            {
                "species": [
                    {
                        "element": "O",
                        "occu": 1
                    }
                ],
                "abc": [
                    0.1367909,
                    0.80511921,
                    0.0
                ],
                "xyz": [
                    0.783711062625335,
                    7.788376601515326,
                    0.0
                ],
                "label": "O",
                "properties": {}
            },
            {
                "species": [
                    {
                        "element": "O",
                        "occu": 1
                    }
                ],
                "abc": [
                    0.8632091,
                    0.19488079,
                    0.0
                ],
                "xyz": [
                    4.945552087374665,
                    1.8851928584846733,
                    0.0
                ],
                "label": "O",
                "properties": {}
            },
            {
                "species": [
                    {
                        "element": "O",
                        "occu": 1
                    }
                ],
                "abc": [
                    0.6367909,
                    0.69488079,
                    0.0
                ],
                "xyz": [
                    3.6483426376253356,
                    6.721977588484673,
                    0.0
                ],
                "label": "O",
                "properties": {}
            },
            {
                "species": [
                    {
                        "element": "O",
                        "occu": 1
                    }
                ],
                "abc": [
                    0.3632091,
                    0.30511921,
                    0.0
                ],
                "xyz": [
                    2.0809205123746652,
                    2.951591871515326,
                    0.0
                ],
                "label": "O",
                "properties": {}
            },
            {
                "species": [
                    {
                        "element": "O",
                        "occu": 1
                    }
                ],
                "abc": [
                    0.2704213,
                    0.54852427,
                    0.5
                ],
                "xyz": [
                    1.549314789065095,
                    5.306187626340794,
                    1.63197955
                ],
                "label": "O",
                "properties": {}
            },
            {
                "species": [
                    {
                        "element": "O",
                        "occu": 1
                    }
                ],
                "abc": [
                    0.7295787,
                    0.45147573,
                    0.5
                ],
                "xyz": [
                    4.1799483609349055,
                    4.367381833659206,
                    1.63197955
                ],
                "label": "O",
                "properties": {}
            },
            {
                "species": [
                    {
                        "element": "O",
                        "occu": 1
                    }
                ],
                "abc": [
                    0.2295787,
                    0.04852427,
                    0.5
                ],
                "xyz": [
                    1.315316785934905,
                    0.4694028963407942,
                    1.63197955
                ],
                "label": "O",
                "properties": {}
            },
            {
                "species": [
                    {
                        "element": "O",
                        "occu": 1
                    }
                ],
                "abc": [
                    0.7704213,
                    0.95147573,
                    0.5
                ],
                "xyz": [
                    4.4139463640650956,
                    9.204166563659205,
                    1.63197955
                ],
                "label": "O",
                "properties": {}
            }
        ]
    },
    "spacegroup": {
        "source": "spglib",
        "symbol": "Pbam",
        "number": 55,
        "point_group": "mmm",
        "crystal_system": "orthorhombic",
        "hall": "-P 2 2ab"
    },
    "dielectric": {
        "epsilon_ionic": [
            [
                7.48536651,
                -2e-08,
                -0.0
            ],
            [
                -2e-08,
                9.87795177,
                -0.0
            ],
            [
                -0.0,
                -0.0,
                7.65383463
            ]
        ],
        "epsilon_ionic_avg": 8.33905097,
        "epsilon_ionic_eig": [
            7.48536651,
            9.87795177,
            7.65383463
        ],
        "epsilon_electronic": [
            [
                3.91434968,
                0.0,
                0.0
            ],
            [
                -0.0,
                3.84950121,
                0.0
            ],
            [
                0.0,
                0.0,
                4.0466473
            ]
        ],
        "epsilon_electronic_avg": 3.9368327300000003,
        "epsilon_electronic_eig": [
            3.91434968,
            3.84950121,
            4.0466473
        ]
    },
    "phonon": {
        "lowest_freq": -0.02552196737805985,
        "frequency": [
            -0.02552196737805985,
            -0.019522146449495147,
            -0.013942093568576655,
            3.1619166795965716,
            3.3377911849750053,
            4.065340883413315,
            4.205478714403315,
            4.316674632111526,
            4.760197962785037,
            4.926721853866898,
            5.52253669834349,
            5.611319496384229,
            6.182016188372703,
            6.482830276349724,
            6.712269095078117,
            7.3081298358412665,
            8.077792254161205,
            8.111339789740974,
            8.87314565997658,
            9.927394314711407,
            10.023669991647392,
            10.132167500658921,
            10.337155015367285,
            10.394108305470338,
            10.47932878701682,
            11.037718159368849,
            11.099282910518216,
            11.185737406865455,
            11.232413331765864,
            11.296303609359704,
            12.076048818633764,
            12.31004086921077,
            12.700286965027965,
            13.822883350875266,
            13.88597443653013,
            13.92366451078152,
            13.948620164461849,
            16.004055826530113,
            16.379091603792688,
            17.498569251435768,
            17.741215952391528,
            18.080549492586737
        ]
    },
    "born_effective_charge": {
        "avg_abs_trace": 2.4399809523809526,
        "tensors": [
            [
                [
                    2.69397,
                    0.13711,
                    0.0
                ],
                [
                    0.30203,
                    2.23974,
                    0.0
                ],
                [
                    -3e-05,
                    0.0,
                    2.18364
                ]
            ],
            [
                [
                    2.69395,
                    0.13701,
                    0.0
                ],
                [
                    0.30189,
                    2.23994,
                    0.0
                ],
                [
                    3e-05,
                    -0.0,
                    2.18364
                ]
            ],
            [
                [
                    2.69395,
                    -0.13701,
                    0.0
                ],
                [
                    -0.30203,
                    2.23974,
                    0.0
                ],
                [
                    3e-05,
                    0.0,
                    2.18364
                ]
            ],
            [
                [
                    2.69397,
                    -0.13711,
                    0.0
                ],
                [
                    -0.30189,
                    2.23994,
                    0.0
                ],
                [
                    -3e-05,
                    -0.0,
                    2.18364
                ]
            ],
            [
                [
                    3.13066,
                    -0.06475,
                    0.0
                ],
                [
                    -0.06858,
                    3.67578,
                    0.0
                ],
                [
                    -0.0,
                    -0.0,
                    4.57847
                ]
            ],
            [
                [
                    3.13066,
                    0.06475,
                    0.0
                ],
                [
                    0.06858,
                    3.67578,
                    0.0
                ],
                [
                    -0.0,
                    -0.0,
                    4.57847
                ]
            ],
            [
                [
                    -2.03833,
                    0.02332,
                    0.0
                ],
                [
                    0.11884,
                    -2.12852,
                    0.0
                ],
                [
                    -3e-05,
                    -3e-05,
                    -2.18158
                ]
            ],
            [
                [
                    -2.03853,
                    0.0236,
                    0.0
                ],
                [
                    0.11878,
                    -2.12843,
                    0.0
                ],
                [
                    3e-05,
                    3e-05,
                    -2.18158
                ]
            ],
            [
                [
                    -2.03833,
                    -0.02332,
                    0.0
                ],
                [
                    -0.11878,
                    -2.12843,
                    0.0
                ],
                [
                    -3e-05,
                    3e-05,
                    -2.18158
                ]
            ],
            [
                [
                    -2.03853,
                    -0.0236,
                    0.0
                ],
                [
                    -0.11884,
                    -2.12852,
                    0.0
                ],
                [
                    3e-05,
                    -3e-05,
                    -2.18158
                ]
            ],
            [
                [
                    -2.22103,
                    0.20957,
                    0.0
                ],
                [
                    0.21103,
                    -1.94919,
                    0.0
                ],
                [
                    0.00012,
                    -3e-05,
                    -2.2913
                ]
            ],
            [
                [
                    -2.2207,
                    0.20986,
                    0.0
                ],
                [
                    0.21099,
                    -1.94932,
                    0.0
                ],
                [
                    -0.00012,
                    3e-05,
                    -2.2913
                ]
            ],
            [
                [
                    -2.2207,
                    -0.20986,
                    0.0
                ],
                [
                    -0.21103,
                    -1.94919,
                    0.0
                ],
                [
                    -0.00012,
                    -3e-05,
                    -2.2913
                ]
            ],
            [
                [
                    -2.22103,
                    -0.20957,
                    0.0
                ],
                [
                    -0.21099,
                    -1.94932,
                    0.0
                ],
                [
                    0.00012,
                    3e-05,
                    -2.2913
                ]
            ]
        ]
    },
    "band_gap": 2.8418,
    "is_direct": false,
    "formula": "Ca2SnO4"
}