{
    "mp_id": "mp-4867",
    "nelements": 3,
    "nsites": 24,
    "elements": [
        "Al",
        "Ca",
        "O"
    ],
    "structure": {
        "@module": "pymatgen.core.structure",
        "@class": "Structure",
        "charge": null,
        "lattice": {
            "matrix": [
                [
                    6.44415809,
                    -4.45472775,
                    -0.00086066
                ],
                [
                    6.44415809,
                    4.45472775,
                    -0.00086066
                ],
                [
                    -1.59091478,
                    0.0,
                    5.20182074
                ]
            ],
            "a": 7.834013885376267,
            "b": 7.834013885376267,
            "c": 5.439664405854151,
            "alpha": 103.92688298570093,
            "beta": 103.92688298570093,
            "gamma": 69.31078131691504,
            "volume": 298.6448233397249
        },
        "sites": [
            {
                "species": [
                    {
                        "element": "Ca",
                        "occu": 1
                    }
                ],
                "abc": [
                    0.80914714,
                    0.19085286,
                    0.25
                ],
                "xyz": [
                    6.0464293950000005,
                    -2.75433268678227,
                    1.2995945249999998
                ],
                "label": "Ca",
                "properties": {}
            },
            {
                "species": [
                    {
                        "element": "Ca",
                        "occu": 1
                    }
                ],
                "abc": [
                    0.19085286,
                    0.80914714,
                    0.75
                ],
                "xyz": [
                    5.250972005,
                    2.75433268678227,
                    3.900504895
                ],
                "label": "Ca",
                "properties": {}
            },
            {
                "species": [
                    {
                        "element": "Al",
                        "occu": 1
                    }
                ],
                "abc": [
                    0.55984514,
                    0.67843757,
                    0.23425707
                ],
                "xyz": [
                    7.607006508371129,
                    0.5282969888609328,
                    1.2174975448204433
                ],
                "label": "Al",
                "properties": {}
            },
            {
                "species": [
                    {
                        "element": "Al",
                        "occu": 1
                    }
                ],
                "abc": [
                    0.32156243,
                    0.44015486,
                    0.26574293
                ],
                "xyz": [
                    4.485852281628871,
                    0.5282969888609323,
                    1.3816915051795566
                ],
                "label": "Al",
                "properties": {}
            },
            {
                "species": [
                    {
                        "element": "Al",
                        "occu": 1
                    }
                ],
                "abc": [
                    0.44015486,
                    0.32156243,
                    0.76574293
                ],
                "xyz": [
                    3.6903948916288707,
                    -0.5282969888609323,
                    3.9826018751795567
                ],
                "label": "Al",
                "properties": {}
            },
            {
                "species": [
                    {
                        "element": "Al",
                        "occu": 1
                    }
                ],
                "abc": [
                    0.67843757,
                    0.55984514,
                    0.73425707
                ],
                "xyz": [
                    6.811549118371129,
                    -0.5282969888609328,
                    3.8184079148204426
                ],
                "label": "Al",
                "properties": {}
            },
            {
                "species": [
                    {
                        "element": "Al",
                        "occu": 1
                    }
                ],
                "abc": [
                    0.24940929,
                    0.07654544,
                    0.3061244
                ],
                "xyz": [
                    1.613485977824634,
                    -0.7700613895668373,
                    1.592123716742134
                ],
                "label": "Al",
                "properties": {}
            },
            {
                "species": [
                    {
                        "element": "Al",
                        "occu": 1
                    }
                ],
                "abc": [
                    0.92345456,
                    0.75059071,
                    0.1938756
                ],
                "xyz": [
                    10.479372812175367,
                    -0.7700613895668376,
                    1.0070653332578656
                ],
                "label": "Al",
                "properties": {}
            },
            {
                "species": [
                    {
                        "element": "Al",
                        "occu": 1
                    }
                ],
                "abc": [
                    0.75059071,
                    0.92345456,
                    0.6938756
                ],
                "xyz": [
                    9.683915422175366,
                    0.7700613895668376,
                    3.607975703257866
                ],
                "label": "Al",
                "properties": {}
            },
            {
                "species": [
                    {
                        "element": "Al",
                        "occu": 1
                    }
                ],
                "abc": [
                    0.07654544,
                    0.24940929,
                    0.8061244
                ],
                "xyz": [
                    0.8180285878246341,
                    0.7700613895668373,
                    4.193034086742133
                ],
                "label": "Al",
                "properties": {}
            },
            {
                "species": [
                    {
                        "element": "O",
                        "occu": 1
                    }
                ],
                "abc": [
                    0.63627035,
                    0.74937206,
                    0.57436717
                ],
                "xyz": [
                    8.015529526348825,
                    0.5038373261094526,
                    2.986562490284515
                ],
                "label": "O",
                "properties": {}
            },
            {
                "species": [
                    {
                        "element": "O",
                        "occu": 1
                    }
                ],
                "abc": [
                    0.25062794,
                    0.36372965,
                    0.92563283
                ],
                "xyz": [
                    2.486414483651176,
                    0.5038373261094526,
                    4.814447299715485
                ],
                "label": "O",
                "properties": {}
            },
            {
                "species": [
                    {
                        "element": "O",
                        "occu": 1
                    }
                ],
                "abc": [
                    0.36372965,
                    0.25062794,
                    0.42563283
                ],
                "xyz": [
                    3.2818718736511756,
                    -0.5038373261094526,
                    2.2135369297154845
                ],
                "label": "O",
                "properties": {}
            },
            {
                "species": [
                    {
                        "element": "O",
                        "occu": 1
                    }
                ],
                "abc": [
                    0.74937206,
                    0.63627035,
                    0.07436717
                ],
                "xyz": [
                    8.810986916348826,
                    -0.5038373261094526,
                    0.3856521202845152
                ],
                "label": "O",
                "properties": {}
            },
            {
                "species": [
                    {
                        "element": "O",
                        "occu": 1
                    }
                ],
                "abc": [
                    0.37135136,
                    0.86365023,
                    0.14469284
                ],
                "xyz": [
                    7.728351509645187,
                    2.193057437482642,
                    0.7516032995730522
                ],
                "label": "O",
                "properties": {}
            },
            {
                "species": [
                    {
                        "element": "O",
                        "occu": 1
                    }
                ],
                "abc": [
                    0.13634977,
                    0.62864864,
                    0.35530716
                ],
                "xyz": [
                    4.364507280354813,
                    2.1930574374826426,
                    1.8475857504269477
                ],
                "label": "O",
                "properties": {}
            },
            {
                "species": [
                    {
                        "element": "O",
                        "occu": 1
                    }
                ],
                "abc": [
                    0.62864864,
                    0.13634977,
                    0.85530716
                ],
                "xyz": [
                    3.5690498903548127,
                    -2.1930574374826426,
                    4.448496120426947
                ],
                "label": "O",
                "properties": {}
            },
            {
                "species": [
                    {
                        "element": "O",
                        "occu": 1
                    }
                ],
                "abc": [
                    0.86365023,
                    0.37135136,
                    0.64469284
                ],
                "xyz": [
                    6.932894119645187,
                    -2.193057437482642,
                    3.352513669573052
                ],
                "label": "O",
                "properties": {}
            },
            {
                "species": [
                    {
                        "element": "O",
                        "occu": 1
                    }
                ],
                "abc": [
                    0.16863947,
                    0.06004476,
                    0.57115822
                ],
                "xyz": [
                    0.565013276893429,
                    -0.4837598681402026,
                    2.970865855248091
                ],
                "label": "O",
                "properties": {}
            },
            {
                "species": [
                    {
                        "element": "O",
                        "occu": 1
                    }
                ],
                "abc": [
                    0.93995524,
                    0.83136053,
                    0.92884178
                ],
                "xyz": [
                    9.936930733106571,
                    -0.48375986814020244,
                    4.830143934751908
                ],
                "label": "O",
                "properties": {}
            },
            {
                "species": [
                    {
                        "element": "O",
                        "occu": 1
                    }
                ],
                "abc": [
                    0.46569126,
                    0.53430874,
                    0.75
                ],
                "xyz": [
                    5.250972005,
                    0.3056721922910697,
                    3.900504895
                ],
                "label": "O",
                "properties": {}
            },
            {
                "species": [
                    {
                        "element": "O",
                        "occu": 1
                    }
                ],
                "abc": [
                    0.53430874,
                    0.46569126,
                    0.25
                ],
                "xyz": [
                    6.0464293950000005,
                    -0.3056721922910697,
                    1.2995945249999998
                ],
                "label": "O",
                "properties": {}
            },
            {
                "species": [
                    {
                        "element": "O",
                        "occu": 1
                    }
                ],
                "abc": [
                    0.06004476,
                    0.16863947,
                    0.07115822
                ],
                "xyz": [
                    1.3604706668934292,
                    0.4837598681402026,
                    0.3699554852480909
                ],
                "label": "O",
                "properties": {}
            },
            {
                "species": [
                    {
                        "element": "O",
                        "occu": 1
                    }
                ],
                "abc": [
                    0.83136053,
                    0.93995524,
                    0.42884178
                ],
                "xyz": [
                    10.732388123106572,
                    0.48375986814020244,
                    2.2292335647519086
                ],
                "label": "O",
                "properties": {}
            }
        ]
    },
    "spacegroup": {
        "source": "spglib",
        "symbol": "C2/c",
        "number": 15,
        "point_group": "2/m",
        "crystal_system": "monoclinic",
        "hall": "-C 2yc"
    },
    "dielectric": {
        "epsilon_ionic": [
            [
                6.54301369,
                0.0,
                8.99193502
            ],
            [
                0.0,
                3.7299146,
                -0.0
            ],
            [
                8.99193502,
                -0.0,
                32.93551191
            ]
        ],
        "epsilon_ionic_avg": 14.4028134,
        "epsilon_ionic_eig": [
            3.7706721929026337,
            35.70785340709737,
            3.7299146
        ],
        "epsilon_electronic": [
            [
                2.81879153,
                0.0,
                0.04242894
            ],
            [
                0.0,
                2.80642492,
                0.0
            ],
            [
                0.04242905,
                0.0,
                2.93789386
            ]
        ],
        "epsilon_electronic_avg": 2.854370103333333,
        "epsilon_electronic_eig": [
            2.8052225139993743,
            2.951462876000625,
            2.80642492
        ]
    },
    "phonon": {
        "lowest_freq": -0.10385366651677205,
        "frequency": [
            -0.10385366651677205,
            -0.08244212982890173,
            -0.054617623102782634,
            2.0133681908587593,
            3.010350987532031,
            3.242882890634041,
            3.725415263048216,
            3.8242079500915067,
            4.69494816336319,
            4.909057375767879,
            5.169656556642034,
            5.25851065735271,
            5.425851005743421,
            5.6799442640199835,
            5.728802325767015,
            5.788177591835921,
            6.30130819342145,
            6.40837099826457,
            7.152179777862698,
            7.15937477827777,
            7.373269646322142,
            7.4028570917226215,
            7.849994425138421,
            8.158659907156236,
            8.795762399401442,
            8.942369709955686,
            9.253529667500729,
            9.356873958750114,
            9.46307325612002,
            9.787190105102715,
            10.053977381825886,
            10.191388003496611,
            10.27215214276662,
            11.136148484952832,
            11.968938149054647,
            11.989980012384965,
            12.113726242825727,
            12.317995075619262,
            12.774188371180546,
            12.891731290198273,
            13.036179907175278,
            13.129696482815374,
            15.468593619929099,
            16.185247180411157,
            16.344722060794947,
            16.582525084896798,
            17.305106388421503,
            18.354558156992052,
            18.698103202608745,
            19.132220407014074,
            19.329389426789128,
            19.335953248830048,
            19.664402223743352,
            19.80104496538008,
            20.274714666221712,
            20.27509154447702,
            20.95460257342536,
            21.74191374259639,
            22.15921021484618,
            22.434113997878406,
            22.487758841504395,
            23.513632535581955,
            23.650663539566125,
            23.906646609930704,
            23.913314721794197,
            24.780913850086893,
            24.969103311011406,
            25.118255319532075,
            26.602682341947038,
            26.662412819798966,
            27.762654771644637,
            27.766506695595357
        ]
    },
    "born_effective_charge": {
        "avg_abs_trace": 2.115595972222222,
        "tensors": [
            [
                [
                    2.11991,
                    4e-05,
                    0.06639
                ],
                [
                    -0.0,
                    2.39632,
                    0.0
                ],
                [
                    0.07355,
                    -4e-05,
                    2.52585
                ]
            ],
            [
                [
                    2.11991,
                    -4e-05,
                    0.06639
                ],
                [
                    -0.0,
                    2.39625,
                    0.0
                ],
                [
                    0.07355,
                    4e-05,
                    2.52585
                ]
            ],
            [
                [
                    2.60499,
                    0.02195,
                    0.05014
                ],
                [
                    0.03459,
                    2.47229,
                    -0.01355
                ],
                [
                    0.03005,
                    0.04811,
                    2.84514
                ]
            ],
            [
                [
                    2.60499,
                    -0.02195,
                    0.05013
                ],
                [
                    -0.03459,
                    2.47229,
                    0.01355
                ],
                [
                    0.03002,
                    -0.0481,
                    2.84519
                ]
            ],
            [
                [
                    2.60499,
                    0.02195,
                    0.05013
                ],
                [
                    0.03459,
                    2.4723,
                    -0.01355
                ],
                [
                    0.03002,
                    0.0481,
                    2.84519
                ]
            ],
            [
                [
                    2.60499,
                    -0.02195,
                    0.05014
                ],
                [
                    -0.03459,
                    2.4723,
                    0.01355
                ],
                [
                    0.03005,
                    -0.04811,
                    2.84514
                ]
            ],
            [
                [
                    2.49955,
                    0.12415,
                    0.06667
                ],
                [
                    0.09797,
                    2.45869,
                    0.11371
                ],
                [
                    0.08851,
                    0.04544,
                    2.63863
                ]
            ],
            [
                [
                    2.49955,
                    -0.12417,
                    0.06667
                ],
                [
                    -0.09797,
                    2.45869,
                    -0.11371
                ],
                [
                    0.08849,
                    -0.04539,
                    2.63868
                ]
            ],
            [
                [
                    2.49955,
                    0.12417,
                    0.06667
                ],
                [
                    0.09797,
                    2.45868,
                    0.11371
                ],
                [
                    0.08849,
                    0.04539,
                    2.63868
                ]
            ],
            [
                [
                    2.49955,
                    -0.12415,
                    0.06667
                ],
                [
                    -0.09797,
                    2.45868,
                    -0.11371
                ],
                [
                    0.08851,
                    -0.04544,
                    2.63863
                ]
            ],
            [
                [
                    -2.09292,
                    -0.29888,
                    -0.16186
                ],
                [
                    -0.26899,
                    -1.34784,
                    0.17437
                ],
                [
                    -0.19016,
                    0.14361,
                    -1.98239
                ]
            ],
            [
                [
                    -2.0929,
                    0.29892,
                    -0.16183
                ],
                [
                    0.26899,
                    -1.34784,
                    -0.17437
                ],
                [
                    -0.19019,
                    -0.14376,
                    -1.98244
                ]
            ],
            [
                [
                    -2.0929,
                    -0.29892,
                    -0.16183
                ],
                [
                    -0.26895,
                    -1.34785,
                    0.17438
                ],
                [
                    -0.19019,
                    0.14376,
                    -1.98244
                ]
            ],
            [
                [
                    -2.09292,
                    0.29888,
                    -0.16186
                ],
                [
                    0.26895,
                    -1.34785,
                    -0.17438
                ],
                [
                    -0.19016,
                    -0.14361,
                    -1.98239
                ]
            ],
            [
                [
                    -1.29818,
                    -0.09711,
                    -0.2112
                ],
                [
                    -0.12201,
                    -2.31205,
                    -0.01158
                ],
                [
                    -0.22164,
                    -0.03073,
                    -1.79977
                ]
            ],
            [
                [
                    -1.29821,
                    0.09709,
                    -0.21119
                ],
                [
                    0.12201,
                    -2.31205,
                    0.01158
                ],
                [
                    -0.22161,
                    0.03077,
                    -1.79976
                ]
            ],
            [
                [
                    -1.29821,
                    -0.09709,
                    -0.21119
                ],
                [
                    -0.12199,
                    -2.31203,
                    -0.0116
                ],
                [
                    -0.22161,
                    -0.03077,
                    -1.79976
                ]
            ],
            [
                [
                    -1.29818,
                    0.09711,
                    -0.2112
                ],
                [
                    0.12199,
                    -2.31203,
                    0.0116
                ],
                [
                    -0.22164,
                    0.03073,
                    -1.79977
                ]
            ],
            [
                [
                    -1.75535,
                    -0.08941,
                    0.26625
                ],
                [
                    -0.09158,
                    -1.6304,
                    -0.21345
                ],
                [
                    0.26298,
                    -0.20621,
                    -2.01477
                ]
            ],
            [
                [
                    -1.75534,
                    0.08935,
                    0.26628
                ],
                [
                    0.09158,
                    -1.6304,
                    0.21345
                ],
                [
                    0.26304,
                    0.20647,
                    -2.01483
                ]
            ],
            [
                [
                    -2.0361,
                    1e-05,
                    -0.08646
                ],
                [
                    0.0,
                    -1.67768,
                    0.0
                ],
                [
                    -0.01304,
                    -0.00019,
                    -1.89953
                ]
            ],
            [
                [
                    -2.0361,
                    -1e-05,
                    -0.08646
                ],
                [
                    -0.0,
                    -1.67766,
                    0.0
                ],
                [
                    -0.01304,
                    0.00019,
                    -1.89953
                ]
            ],
            [
                [
                    -1.75535,
                    0.08941,
                    0.26625
                ],
                [
                    0.0916,
                    -1.6304,
                    0.21344
                ],
                [
                    0.26298,
                    0.20621,
                    -2.01477
                ]
            ],
            [
                [
                    -1.75534,
                    -0.08935,
                    0.26628
                ],
                [
                    -0.0916,
                    -1.6304,
                    -0.21344
                ],
                [
                    0.26304,
                    -0.20647,
                    -2.01483
                ]
            ]
        ]
    },
    "band_gap": 4.1173,
    "is_direct": true,
    "formula": "CaAl4O7"
}