{
    "mp_id": "mp-4117",
    "nelements": 3,
    "nsites": 18,
    "elements": [
        "Li",
        "O",
        "Si"
    ],
    "structure": {
        "@module": "pymatgen.core.structure",
        "@class": "Structure",
        "charge": null,
        "lattice": {
            "matrix": [
                [
                    2.91871676,
                    -7.34799604,
                    0.0
                ],
                [
                    2.91871676,
                    7.34799604,
                    0.0
                ],
                [
                    0.0,
                    0.0,
                    4.79595691
                ]
            ],
            "a": 7.906450109180515,
            "b": 7.906450109180515,
            "c": 4.79595691,
            "alpha": 90.0,
            "beta": 90.0,
            "gamma": 136.67279903241948,
            "volume": 205.7150822340566
        },
        "sites": [
            {
                "species": [
                    {
                        "element": "Li",
                        "occu": 1
                    }
                ],
                "abc": [
                    0.79038947,
                    0.90529335,
                    0.00521373
                ],
                "xyz": [
                    4.9492178663780635,
                    0.8443132552206345,
                    0.0250048244203743
                ],
                "label": "Li",
                "properties": {}
            },
            {
                "species": [
                    {
                        "element": "Li",
                        "occu": 1
                    }
                ],
                "abc": [
                    0.20961053,
                    0.09470665,
                    0.00521373
                ],
                "xyz": [
                    0.8882156536219368,
                    -0.844313255220635,
                    0.0250048244203743
                ],
                "label": "Li",
                "properties": {}
            },
            {
                "species": [
                    {
                        "element": "Li",
                        "occu": 1
                    }
                ],
                "abc": [
                    0.09470665,
                    0.20961053,
                    0.50521373
                ],
                "xyz": [
                    0.8882156536219368,
                    0.844313255220635,
                    2.4229832794203743
                ],
                "label": "Li",
                "properties": {}
            },
            {
                "species": [
                    {
                        "element": "Li",
                        "occu": 1
                    }
                ],
                "abc": [
                    0.90529335,
                    0.79038947,
                    0.50521373
                ],
                "xyz": [
                    4.9492178663780635,
                    -0.8443132552206345,
                    2.4229832794203743
                ],
                "label": "Li",
                "properties": {}
            },
            {
                "species": [
                    {
                        "element": "Si",
                        "occu": 1
                    }
                ],
                "abc": [
                    0.19623032,
                    0.49180237,
                    0.00752648
                ],
                "xyz": [
                    2.0081725437308844,
                    2.171862252934682,
                    0.0360966737639768
                ],
                "label": "Si",
                "properties": {}
            },
            {
                "species": [
                    {
                        "element": "Si",
                        "occu": 1
                    }
                ],
                "abc": [
                    0.80376968,
                    0.50819763,
                    0.00752648
                ],
                "xyz": [
                    3.829260976269116,
                    -2.1718622529346825,
                    0.0360966737639768
                ],
                "label": "Si",
                "properties": {}
            },
            {
                "species": [
                    {
                        "element": "Si",
                        "occu": 1
                    }
                ],
                "abc": [
                    0.50819763,
                    0.80376968,
                    0.50752648
                ],
                "xyz": [
                    3.829260976269116,
                    2.1718622529346825,
                    2.434075128763977
                ],
                "label": "Si",
                "properties": {}
            },
            {
                "species": [
                    {
                        "element": "Si",
                        "occu": 1
                    }
                ],
                "abc": [
                    0.49180237,
                    0.19623032,
                    0.50752648
                ],
                "xyz": [
                    2.0081725437308844,
                    -2.171862252934682,
                    2.434075128763977
                ],
                "label": "Si",
                "properties": {}
            },
            {
                "species": [
                    {
                        "element": "O",
                        "occu": 1
                    }
                ],
                "abc": [
                    0.23914128,
                    0.09709767,
                    0.60219176
                ],
                "xyz": [
                    0.9813862587298021,
                    -1.0437358837873045,
                    2.8880857325170615
                ],
                "label": "O",
                "properties": {}
            },
            {
                "species": [
                    {
                        "element": "O",
                        "occu": 1
                    }
                ],
                "abc": [
                    0.76085872,
                    0.90290233,
                    0.60219176
                ],
                "xyz": [
                    4.856047261270199,
                    1.0437358837873045,
                    2.8880857325170615
                ],
                "label": "O",
                "properties": {}
            },
            {
                "species": [
                    {
                        "element": "O",
                        "occu": 1
                    }
                ],
                "abc": [
                    0.90290233,
                    0.76085872,
                    0.10219176
                ],
                "xyz": [
                    4.856047261270199,
                    -1.0437358837873045,
                    0.4901072775170616
                ],
                "label": "O",
                "properties": {}
            },
            {
                "species": [
                    {
                        "element": "O",
                        "occu": 1
                    }
                ],
                "abc": [
                    0.09709767,
                    0.23914128,
                    0.10219176
                ],
                "xyz": [
                    0.9813862587298021,
                    1.0437358837873045,
                    0.4901072775170616
                ],
                "label": "O",
                "properties": {}
            },
            {
                "species": [
                    {
                        "element": "O",
                        "occu": 1
                    }
                ],
                "abc": [
                    0.73159227,
                    0.45719615,
                    0.67106969
                ],
                "xyz": [
                    3.4697366855479195,
                    -2.016261603151365,
                    3.218421316847058
                ],
                "label": "O",
                "properties": {}
            },
            {
                "species": [
                    {
                        "element": "O",
                        "occu": 1
                    }
                ],
                "abc": [
                    0.26840773,
                    0.54280385,
                    0.67106969
                ],
                "xyz": [
                    2.367696834452081,
                    2.0162616031513645,
                    3.218421316847058
                ],
                "label": "O",
                "properties": {}
            },
            {
                "species": [
                    {
                        "element": "O",
                        "occu": 1
                    }
                ],
                "abc": [
                    0.54280385,
                    0.26840773,
                    0.17106969
                ],
                "xyz": [
                    2.367696834452081,
                    -2.0162616031513645,
                    0.820442861847058
                ],
                "label": "O",
                "properties": {}
            },
            {
                "species": [
                    {
                        "element": "O",
                        "occu": 1
                    }
                ],
                "abc": [
                    0.45719615,
                    0.73159227,
                    0.17106969
                ],
                "xyz": [
                    3.4697366855479195,
                    2.016261603151365,
                    0.820442861847058
                ],
                "label": "O",
                "properties": {}
            },
            {
                "species": [
                    {
                        "element": "O",
                        "occu": 1
                    }
                ],
                "abc": [
                    0.5,
                    0.0,
                    0.56583667
                ],
                "xyz": [
                    1.45935838,
                    -3.67399802,
                    2.71372828741789
                ],
                "label": "O",
                "properties": {}
            },
            {
                "species": [
                    {
                        "element": "O",
                        "occu": 1
                    }
                ],
                "abc": [
                    0.0,
                    0.5,
                    0.06583667
                ],
                "xyz": [
                    1.45935838,
                    3.67399802,
                    0.31574983241788973
                ],
                "label": "O",
                "properties": {}
            }
        ]
    },
    "spacegroup": {
        "source": "spglib",
        "symbol": "Ccc2",
        "number": 37,
        "point_group": "mm2",
        "crystal_system": "orthorhombic",
        "hall": "C 2 -2c"
    },
    "dielectric": {
        "epsilon_ionic": [
            [
                2.47221145,
                0.0,
                -7.8e-07
            ],
            [
                0.0,
                2.38628921,
                1.1e-07
            ],
            [
                -7.8e-07,
                1.1e-07,
                2.96670985
            ]
        ],
        "epsilon_ionic_avg": 2.6084035033333333,
        "epsilon_ionic_eig": [
            2.47221144999877,
            2.9667098500012505,
            2.3862892099999793
        ],
        "epsilon_electronic": [
            [
                2.49689067,
                0.0,
                0.0
            ],
            [
                0.0,
                2.51082347,
                0.0
            ],
            [
                0.0,
                0.0,
                2.54111393
            ]
        ],
        "epsilon_electronic_avg": 2.5162760233333334,
        "epsilon_electronic_eig": [
            2.49689067,
            2.51082347,
            2.54111393
        ]
    },
    "phonon": {
        "lowest_freq": -0.09805773331360006,
        "frequency": [
            -0.09805773331360006,
            -0.04641980491553819,
            -0.04378600205109554,
            3.7061211981328017,
            3.885704658929063,
            4.045059201428067,
            4.425254274160247,
            5.485265652958995,
            6.553313570343366,
            6.786495338533287,
            7.060463597463769,
            7.666619293994318,
            8.239710626481118,
            9.20786004330735,
            9.371143726143758,
            9.931265635270524,
            10.321705863107494,
            10.358467589084633,
            11.159578321738845,
            11.211670628790658,
            11.410120838122326,
            11.630913724062493,
            11.640134766057258,
            11.752215445941774,
            11.987062954192755,
            12.015136294845759,
            12.294858547814298,
            12.760993681654455,
            13.128221179292469,
            13.310116726010078,
            13.57355096034619,
            13.604928522211896,
            13.830444110350722,
            14.480831833809374,
            15.593057825283664,
            15.75143333442637,
            15.825538721041934,
            16.314806559050986,
            16.57562231182143,
            18.09407558393062,
            19.25011274241843,
            22.159484290756296,
            22.43124179479392,
            22.817227633528262,
            27.39984120493032,
            27.456857448682882,
            28.044015042303844,
            29.657289956736484,
            29.782171988784302,
            30.35775414597688,
            30.4819161915001,
            32.31517821463957,
            33.234233195413644,
            34.587505596001094
        ]
    },
    "born_effective_charge": {
        "avg_abs_trace": 1.841070740740741,
        "tensors": [
            [
                [
                    1.06208,
                    0.03238,
                    0.00563
                ],
                [
                    0.02506,
                    1.03347,
                    0.03632
                ],
                [
                    -0.03233,
                    -0.00989,
                    1.04402
                ]
            ],
            [
                [
                    1.06208,
                    0.03238,
                    -0.00563
                ],
                [
                    0.02506,
                    1.03347,
                    -0.03632
                ],
                [
                    0.03233,
                    0.00989,
                    1.04402
                ]
            ],
            [
                [
                    1.06208,
                    -0.03238,
                    -0.00563
                ],
                [
                    -0.02506,
                    1.03347,
                    0.03632
                ],
                [
                    0.03233,
                    -0.00989,
                    1.04402
                ]
            ],
            [
                [
                    1.06208,
                    -0.03238,
                    0.00563
                ],
                [
                    -0.02506,
                    1.03347,
                    -0.03632
                ],
                [
                    -0.03233,
                    0.00989,
                    1.04402
                ]
            ],
            [
                [
                    2.99213,
                    0.20076,
                    -0.27767
                ],
                [
                    0.05417,
                    3.13497,
                    -0.04513
                ],
                [
                    0.22738,
                    0.03479,
                    3.16056
                ]
            ],
            [
                [
                    2.99213,
                    0.20076,
                    0.27767
                ],
                [
                    0.05417,
                    3.13497,
                    0.04513
                ],
                [
                    -0.22738,
                    -0.03479,
                    3.16056
                ]
            ],
            [
                [
                    2.99213,
                    -0.20076,
                    0.27767
                ],
                [
                    -0.05417,
                    3.13497,
                    -0.04513
                ],
                [
                    -0.22738,
                    0.03479,
                    3.16056
                ]
            ],
            [
                [
                    2.99213,
                    -0.20076,
                    -0.27767
                ],
                [
                    -0.05417,
                    3.13497,
                    0.04513
                ],
                [
                    0.22738,
                    -0.03479,
                    3.16056
                ]
            ],
            [
                [
                    -1.63892,
                    -0.32809,
                    0.10543
                ],
                [
                    -0.36035,
                    -1.69833,
                    0.11735
                ],
                [
                    0.03598,
                    0.08412,
                    -1.44732
                ]
            ],
            [
                [
                    -1.63892,
                    -0.32809,
                    -0.10543
                ],
                [
                    -0.36035,
                    -1.69833,
                    -0.11735
                ],
                [
                    -0.03598,
                    -0.08412,
                    -1.44732
                ]
            ],
            [
                [
                    -1.63892,
                    0.32809,
                    -0.10543
                ],
                [
                    0.36035,
                    -1.69833,
                    0.11735
                ],
                [
                    -0.03598,
                    0.08412,
                    -1.44732
                ]
            ],
            [
                [
                    -1.63892,
                    0.32809,
                    0.10543
                ],
                [
                    0.36035,
                    -1.69833,
                    -0.11735
                ],
                [
                    0.03598,
                    -0.08412,
                    -1.44732
                ]
            ],
            [
                [
                    -1.76827,
                    0.09896,
                    -0.60091
                ],
                [
                    0.10186,
                    -1.07505,
                    -0.07485
                ],
                [
                    -0.6383,
                    -0.0355,
                    -2.2274
                ]
            ],
            [
                [
                    -1.76827,
                    0.09897,
                    0.60091
                ],
                [
                    0.10186,
                    -1.07505,
                    0.07485
                ],
                [
                    0.6383,
                    0.0355,
                    -2.2274
                ]
            ],
            [
                [
                    -1.76827,
                    -0.09897,
                    0.60091
                ],
                [
                    -0.10186,
                    -1.07505,
                    -0.07485
                ],
                [
                    0.6383,
                    -0.0355,
                    -2.2274
                ]
            ],
            [
                [
                    -1.76827,
                    -0.09896,
                    -0.60091
                ],
                [
                    -0.10186,
                    -1.07505,
                    0.07485
                ],
                [
                    -0.6383,
                    0.0355,
                    -2.2274
                ]
            ],
            [
                [
                    -1.29403,
                    0.81196,
                    0.0
                ],
                [
                    0.60959,
                    -2.79012,
                    0.0
                ],
                [
                    0.0,
                    0.0,
                    -1.05972
                ]
            ],
            [
                [
                    -1.29403,
                    -0.81196,
                    0.0
                ],
                [
                    -0.60959,
                    -2.79012,
                    0.0
                ],
                [
                    0.0,
                    0.0,
                    -1.05972
                ]
            ]
        ]
    },
    "band_gap": 5.1819,
    "is_direct": false,
    "formula": "Li2Si2O5"
}