{
    "mp_id": "mp-4019",
    "nelements": 3,
    "nsites": 20,
    "elements": [
        "Ca",
        "O",
        "Ti"
    ],
    "structure": {
        "@module": "pymatgen.core.structure",
        "@class": "Structure",
        "charge": null,
        "lattice": {
            "matrix": [
                [
                    5.50063468,
                    0.0,
                    0.0
                ],
                [
                    0.0,
                    7.65790195,
                    0.0
                ],
                [
                    0.0,
                    0.0,
                    5.37039983
                ]
            ],
            "a": 5.50063468,
            "b": 7.65790195,
            "c": 5.37039983,
            "alpha": 90.0,
            "beta": 90.0,
            "gamma": 90.0,
            "volume": 226.219076164118
        },
        "sites": [
            {
                "species": [
                    {
                        "element": "Ca",
                        "occu": 1
                    }
                ],
                "abc": [
                    0.04872052,
                    0.75,
                    0.98888137
                ],
                "xyz": [
                    0.26799378193963364,
                    5.7434264625,
                    5.310688341338167
                ],
                "label": "Ca",
                "properties": {}
            },
            {
                "species": [
                    {
                        "element": "Ca",
                        "occu": 1
                    }
                ],
                "abc": [
                    0.45127948,
                    0.25,
                    0.48888137
                ],
                "xyz": [
                    2.4823235580603664,
                    1.9144754875,
                    2.6254884263381673
                ],
                "label": "Ca",
                "properties": {}
            },
            {
                "species": [
                    {
                        "element": "Ca",
                        "occu": 1
                    }
                ],
                "abc": [
                    0.54872052,
                    0.75,
                    0.51111863
                ],
                "xyz": [
                    3.0183111219396337,
                    5.7434264625,
                    2.744911403661833
                ],
                "label": "Ca",
                "properties": {}
            },
            {
                "species": [
                    {
                        "element": "Ca",
                        "occu": 1
                    }
                ],
                "abc": [
                    0.95127948,
                    0.25,
                    0.01111863
                ],
                "xyz": [
                    5.2326408980603665,
                    1.9144754875,
                    0.0597114886618329
                ],
                "label": "Ca",
                "properties": {}
            },
            {
                "species": [
                    {
                        "element": "Ti",
                        "occu": 1
                    }
                ],
                "abc": [
                    0.0,
                    0.5,
                    0.5
                ],
                "xyz": [
                    0.0,
                    3.828950975,
                    2.685199915
                ],
                "label": "Ti",
                "properties": {}
            },
            {
                "species": [
                    {
                        "element": "Ti",
                        "occu": 1
                    }
                ],
                "abc": [
                    0.5,
                    0.5,
                    0.0
                ],
                "xyz": [
                    2.75031734,
                    3.828950975,
                    0.0
                ],
                "label": "Ti",
                "properties": {}
            },
            {
                "species": [
                    {
                        "element": "Ti",
                        "occu": 1
                    }
                ],
                "abc": [
                    0.5,
                    0.0,
                    0.0
                ],
                "xyz": [
                    2.75031734,
                    0.0,
                    0.0
                ],
                "label": "Ti",
                "properties": {}
            },
            {
                "species": [
                    {
                        "element": "Ti",
                        "occu": 1
                    }
                ],
                "abc": [
                    0.0,
                    0.0,
                    0.5
                ],
                "xyz": [
                    0.0,
                    0.0,
                    2.685199915
                ],
                "label": "Ti",
                "properties": {}
            },
            {
                "species": [
                    {
                        "element": "O",
                        "occu": 1
                    }
                ],
                "abc": [
                    0.52474727,
                    0.25,
                    0.91306725
                ],
                "xyz": [
                    2.8864430315973237,
                    1.9144754875,
                    4.903536204178567
                ],
                "label": "O",
                "properties": {}
            },
            {
                "species": [
                    {
                        "element": "O",
                        "occu": 1
                    }
                ],
                "abc": [
                    0.97525273,
                    0.75,
                    0.41306725
                ],
                "xyz": [
                    5.364508988402677,
                    5.7434264625,
                    2.2183362891785676
                ],
                "label": "O",
                "properties": {}
            },
            {
                "species": [
                    {
                        "element": "O",
                        "occu": 1
                    }
                ],
                "abc": [
                    0.02474727,
                    0.25,
                    0.58693275
                ],
                "xyz": [
                    0.1361256915973236,
                    1.9144754875,
                    3.1520635408214326
                ],
                "label": "O",
                "properties": {}
            },
            {
                "species": [
                    {
                        "element": "O",
                        "occu": 1
                    }
                ],
                "abc": [
                    0.47525273,
                    0.75,
                    0.08693275
                ],
                "xyz": [
                    2.6141916484026764,
                    5.7434264625,
                    0.46686362582143254
                ],
                "label": "O",
                "properties": {}
            },
            {
                "species": [
                    {
                        "element": "O",
                        "occu": 1
                    }
                ],
                "abc": [
                    0.29380189,
                    0.95427921,
                    0.70482108
                ],
                "xyz": [
                    1.6160968651835452,
                    7.30777662310346,
                    3.7851710082124166
                ],
                "label": "O",
                "properties": {}
            },
            {
                "species": [
                    {
                        "element": "O",
                        "occu": 1
                    }
                ],
                "abc": [
                    0.20619811,
                    0.04572079,
                    0.20482108
                ],
                "xyz": [
                    1.1342204748164548,
                    0.35012532689654047,
                    1.0999710932124165
                ],
                "label": "O",
                "properties": {}
            },
            {
                "species": [
                    {
                        "element": "O",
                        "occu": 1
                    }
                ],
                "abc": [
                    0.79380189,
                    0.54572079,
                    0.79517892
                ],
                "xyz": [
                    4.3664142051835455,
                    4.17907630189654,
                    4.270428736787584
                ],
                "label": "O",
                "properties": {}
            },
            {
                "species": [
                    {
                        "element": "O",
                        "occu": 1
                    }
                ],
                "abc": [
                    0.70619811,
                    0.45427921,
                    0.29517892
                ],
                "xyz": [
                    3.8845378148164547,
                    3.4788256481034594,
                    1.5852288217875836
                ],
                "label": "O",
                "properties": {}
            },
            {
                "species": [
                    {
                        "element": "O",
                        "occu": 1
                    }
                ],
                "abc": [
                    0.29380189,
                    0.54572079,
                    0.70482108
                ],
                "xyz": [
                    1.6160968651835452,
                    4.17907630189654,
                    3.7851710082124166
                ],
                "label": "O",
                "properties": {}
            },
            {
                "species": [
                    {
                        "element": "O",
                        "occu": 1
                    }
                ],
                "abc": [
                    0.20619811,
                    0.45427921,
                    0.20482108
                ],
                "xyz": [
                    1.1342204748164548,
                    3.4788256481034594,
                    1.0999710932124165
                ],
                "label": "O",
                "properties": {}
            },
            {
                "species": [
                    {
                        "element": "O",
                        "occu": 1
                    }
                ],
                "abc": [
                    0.70619811,
                    0.04572079,
                    0.29517892
                ],
                "xyz": [
                    3.8845378148164547,
                    0.35012532689654047,
                    1.5852288217875836
                ],
                "label": "O",
                "properties": {}
            },
            {
                "species": [
                    {
                        "element": "O",
                        "occu": 1
                    }
                ],
                "abc": [
                    0.79380189,
                    0.95427921,
                    0.79517892
                ],
                "xyz": [
                    4.3664142051835455,
                    7.30777662310346,
                    4.270428736787584
                ],
                "label": "O",
                "properties": {}
            }
        ]
    },
    "spacegroup": {
        "source": "spglib",
        "symbol": "Pnma",
        "number": 62,
        "point_group": "mmm",
        "crystal_system": "orthorhombic",
        "hall": "-P 2ac 2n"
    },
    "dielectric": {
        "epsilon_ionic": [
            [
                35.16300718,
                -0.0,
                1.4e-07
            ],
            [
                -0.0,
                36.1987938,
                6e-08
            ],
            [
                1.4e-07,
                6e-08,
                34.22605693
            ]
        ],
        "epsilon_ionic_avg": 35.19595263666667,
        "epsilon_ionic_eig": [
            35.16300718000001,
            34.22605692999998,
            36.1987938
        ],
        "epsilon_electronic": [
            [
                6.14660397,
                0.0,
                0.0
            ],
            [
                0.0,
                6.05347552,
                0.0
            ],
            [
                0.0,
                0.0,
                6.01848335
            ]
        ],
        "epsilon_electronic_avg": 6.0728542800000005,
        "epsilon_electronic_eig": [
            6.14660397,
            6.05347552,
            6.01848335
        ]
    },
    "phonon": {
        "lowest_freq": -0.024803120266158503,
        "frequency": [
            -0.024803120266158503,
            -0.02477173643782131,
            -0.017774711074363212,
            3.948941499262675,
            4.597983604668448,
            4.686774803379563,
            4.839269425124982,
            4.881568126585542,
            5.253312673019747,
            5.469595334210775,
            5.486955303253427,
            5.557155526886805,
            5.78483700335992,
            5.924476536056856,
            6.059087396607082,
            6.164965081692871,
            6.365474487195997,
            6.752597205219578,
            6.905681754228182,
            6.91117132574983,
            7.406885753766639,
            7.474970651113164,
            7.596027671966386,
            7.609143830505636,
            8.083027792460268,
            8.125178888926952,
            8.651333261763487,
            8.77877684722663,
            9.081729413159186,
            9.102251156615418,
            9.575524429332514,
            9.678172021094667,
            9.749492489323938,
            10.363896733691186,
            10.471885490385258,
            10.665287764350362,
            10.713937442121761,
            11.699084332776408,
            13.12776889552972,
            13.258926374101616,
            13.412134119593306,
            13.528260646331029,
            13.555497535352432,
            13.727545398980897,
            14.259919859945725,
            15.005308073567317,
            15.055599411116729,
            15.220270463041793,
            15.327637265979117,
            15.359490227187152,
            15.516355541721447,
            15.78396220802925,
            15.996199417846148,
            16.00920427314617,
            16.395588829443803,
            16.604414133050906,
            16.93636396718482,
            21.928821681698658,
            22.68777656811281,
            23.5726904262057
        ]
    },
    "born_effective_charge": {
        "avg_abs_trace": 3.620904666666667,
        "tensors": [
            [
                [
                    2.39648,
                    0.0,
                    0.20702
                ],
                [
                    -3e-05,
                    2.36091,
                    -0.00014
                ],
                [
                    0.15332,
                    -0.0,
                    2.44399
                ]
            ],
            [
                [
                    2.39654,
                    0.0,
                    -0.20656
                ],
                [
                    3e-05,
                    2.36091,
                    -0.00014
                ],
                [
                    -0.15332,
                    -0.0,
                    2.44399
                ]
            ],
            [
                [
                    2.39648,
                    0.0,
                    -0.20702
                ],
                [
                    -3e-05,
                    2.36091,
                    0.00014
                ],
                [
                    -0.15342,
                    -0.0,
                    2.44407
                ]
            ],
            [
                [
                    2.39654,
                    0.0,
                    0.20656
                ],
                [
                    3e-05,
                    2.36091,
                    0.00014
                ],
                [
                    0.15342,
                    -0.0,
                    2.44407
                ]
            ],
            [
                [
                    6.73615,
                    -0.08149,
                    -0.52687
                ],
                [
                    -0.27434,
                    6.66268,
                    -0.75587
                ],
                [
                    0.66811,
                    0.93517,
                    6.5565
                ]
            ],
            [
                [
                    6.73615,
                    -0.08149,
                    0.52687
                ],
                [
                    -0.27434,
                    6.66268,
                    0.75587
                ],
                [
                    -0.66811,
                    -0.93517,
                    6.5565
                ]
            ],
            [
                [
                    6.73615,
                    0.08149,
                    0.52687
                ],
                [
                    0.27434,
                    6.66268,
                    -0.75587
                ],
                [
                    -0.66811,
                    0.93517,
                    6.5565
                ]
            ],
            [
                [
                    6.73615,
                    0.08149,
                    -0.52687
                ],
                [
                    0.27434,
                    6.66268,
                    0.75587
                ],
                [
                    0.66811,
                    -0.93517,
                    6.5565
                ]
            ],
            [
                [
                    -1.7804,
                    0.0,
                    -0.17569
                ],
                [
                    -9e-05,
                    -5.28971,
                    0.00017
                ],
                [
                    0.01505,
                    -0.0,
                    -2.00699
                ]
            ],
            [
                [
                    -1.7804,
                    0.0,
                    0.17585
                ],
                [
                    9e-05,
                    -5.28971,
                    0.00017
                ],
                [
                    -0.01505,
                    -0.0,
                    -2.00699
                ]
            ],
            [
                [
                    -1.7804,
                    0.0,
                    0.17569
                ],
                [
                    -9e-05,
                    -5.28971,
                    -0.00017
                ],
                [
                    -0.01535,
                    -0.0,
                    -2.00713
                ]
            ],
            [
                [
                    -1.7804,
                    0.0,
                    -0.17585
                ],
                [
                    9e-05,
                    -5.28971,
                    -0.00017
                ],
                [
                    0.01535,
                    -0.0,
                    -2.00713
                ]
            ],
            [
                [
                    -3.67628,
                    0.08768,
                    -1.71419
                ],
                [
                    0.10361,
                    -1.86695,
                    -0.00109
                ],
                [
                    -1.66409,
                    0.00133,
                    -3.49668
                ]
            ],
            [
                [
                    -3.67597,
                    0.08725,
                    1.7143
                ],
                [
                    0.10344,
                    -1.86694,
                    0.00107
                ],
                [
                    1.66409,
                    -0.00133,
                    -3.49668
                ]
            ],
            [
                [
                    -3.67628,
                    -0.08768,
                    1.71419
                ],
                [
                    -0.10344,
                    -1.86694,
                    -0.00107
                ],
                [
                    1.66406,
                    0.00048,
                    -3.4968
                ]
            ],
            [
                [
                    -3.67597,
                    -0.08725,
                    -1.7143
                ],
                [
                    -0.10361,
                    -1.86695,
                    0.00109
                ],
                [
                    -1.66406,
                    -0.00048,
                    -3.4968
                ]
            ],
            [
                [
                    -3.67628,
                    -0.08768,
                    -1.71419
                ],
                [
                    -0.10344,
                    -1.86694,
                    0.00107
                ],
                [
                    -1.66409,
                    -0.00133,
                    -3.49668
                ]
            ],
            [
                [
                    -3.67597,
                    -0.08725,
                    1.7143
                ],
                [
                    -0.10361,
                    -1.86695,
                    -0.00109
                ],
                [
                    1.66409,
                    0.00133,
                    -3.49668
                ]
            ],
            [
                [
                    -3.67597,
                    0.08725,
                    -1.7143
                ],
                [
                    0.10344,
                    -1.86694,
                    -0.00107
                ],
                [
                    -1.66406,
                    0.00048,
                    -3.4968
                ]
            ],
            [
                [
                    -3.67628,
                    0.08768,
                    1.71419
                ],
                [
                    0.10361,
                    -1.86695,
                    0.00109
                ],
                [
                    1.66406,
                    -0.00048,
                    -3.4968
                ]
            ]
        ]
    },
    "band_gap": 2.653,
    "is_direct": true,
    "formula": "CaTiO3"
}