{
    "mp_id": "mp-4819",
    "nelements": 3,
    "nsites": 20,
    "elements": [
        "Ge",
        "Mg",
        "O"
    ],
    "structure": {
        "@module": "pymatgen.core.structure",
        "@class": "Structure",
        "charge": null,
        "lattice": {
            "matrix": [
                [
                    4.82239822,
                    -4.48027691,
                    -0.00028668
                ],
                [
                    4.82239822,
                    4.48027691,
                    -0.00028668
                ],
                [
                    -0.95036519,
                    0.0,
                    5.11331907
                ]
            ],
            "a": 6.582431607295569,
            "b": 6.582431607295569,
            "c": 5.200887030689034,
            "alpha": 97.69587494979288,
            "beta": 97.69587494979288,
            "gamma": 85.7876036572563,
            "volume": 220.95102364153712
        },
        "sites": [
            {
                "species": [
                    {
                        "element": "Mg",
                        "occu": 1
                    }
                ],
                "abc": [
                    0.59176399,
                    0.40823601,
                    0.75
                ],
                "xyz": [
                    4.109624327500001,
                    -0.8222561711329419,
                    3.8347026225000005
                ],
                "label": "Mg",
                "properties": {}
            },
            {
                "species": [
                    {
                        "element": "Mg",
                        "occu": 1
                    }
                ],
                "abc": [
                    0.40823601,
                    0.59176399,
                    0.25
                ],
                "xyz": [
                    4.5848069225,
                    0.8222561711329419,
                    1.2780430875
                ],
                "label": "Mg",
                "properties": {}
            },
            {
                "species": [
                    {
                        "element": "Mg",
                        "occu": 1
                    }
                ],
                "abc": [
                    0.23040849,
                    0.76959151,
                    0.75
                ],
                "xyz": [
                    4.109624327500001,
                    2.4156892347700687,
                    3.8347026225000005
                ],
                "label": "Mg",
                "properties": {}
            },
            {
                "species": [
                    {
                        "element": "Mg",
                        "occu": 1
                    }
                ],
                "abc": [
                    0.76959151,
                    0.23040849,
                    0.25
                ],
                "xyz": [
                    4.5848069225,
                    -2.4156892347700687,
                    1.2780430875
                ],
                "label": "Mg",
                "properties": {}
            },
            {
                "species": [
                    {
                        "element": "Ge",
                        "occu": 1
                    }
                ],
                "abc": [
                    0.70472734,
                    0.89619746,
                    0.71016272
                ],
                "xyz": [
                    7.04538297755014,
                    0.857839157590929,
                    3.6308296258574067
                ],
                "label": "Ge",
                "properties": {}
            },
            {
                "species": [
                    {
                        "element": "Ge",
                        "occu": 1
                    }
                ],
                "abc": [
                    0.10380254,
                    0.29527266,
                    0.78983728
                ],
                "xyz": [
                    1.173865677449861,
                    0.8578391575909293,
                    4.038575619142593
                ],
                "label": "Ge",
                "properties": {}
            },
            {
                "species": [
                    {
                        "element": "Ge",
                        "occu": 1
                    }
                ],
                "abc": [
                    0.29527266,
                    0.10380254,
                    0.28983728
                ],
                "xyz": [
                    1.649048272449861,
                    -0.8578391575909293,
                    1.4819160841425933
                ],
                "label": "Ge",
                "properties": {}
            },
            {
                "species": [
                    {
                        "element": "Ge",
                        "occu": 1
                    }
                ],
                "abc": [
                    0.89619746,
                    0.70472734,
                    0.21016272
                ],
                "xyz": [
                    7.52056557255014,
                    -0.857839157590929,
                    1.0741700908574063
                ],
                "label": "Ge",
                "properties": {}
            },
            {
                "species": [
                    {
                        "element": "O",
                        "occu": 1
                    }
                ],
                "abc": [
                    0.52373227,
                    0.70426014,
                    0.62919315
                ],
                "xyz": [
                    5.323905144611063,
                    0.8088148475724819,
                    3.2169132917442718
                ],
                "label": "O",
                "properties": {}
            },
            {
                "species": [
                    {
                        "element": "O",
                        "occu": 1
                    }
                ],
                "abc": [
                    0.29573986,
                    0.47626773,
                    0.87080685
                ],
                "xyz": [
                    2.8953435103889382,
                    0.8088148475724817,
                    4.452491953255728
                ],
                "label": "O",
                "properties": {}
            },
            {
                "species": [
                    {
                        "element": "O",
                        "occu": 1
                    }
                ],
                "abc": [
                    0.47626773,
                    0.29573986,
                    0.37080685
                ],
                "xyz": [
                    3.3705261053889384,
                    -0.8088148475724817,
                    1.8958324182557285
                ],
                "label": "O",
                "properties": {}
            },
            {
                "species": [
                    {
                        "element": "O",
                        "occu": 1
                    }
                ],
                "abc": [
                    0.70426014,
                    0.52373227,
                    0.12919315
                ],
                "xyz": [
                    5.799087739611062,
                    -0.8088148475724819,
                    0.6602537567442718
                ],
                "label": "O",
                "properties": {}
            },
            {
                "species": [
                    {
                        "element": "O",
                        "occu": 1
                    }
                ],
                "abc": [
                    0.63722506,
                    0.12946079,
                    0.88540765
                ],
                "xyz": [
                    2.855803868819484,
                    -2.274924534604006,
                    4.527152027969407
                ],
                "label": "O",
                "properties": {}
            },
            {
                "species": [
                    {
                        "element": "O",
                        "occu": 1
                    }
                ],
                "abc": [
                    0.87053921,
                    0.36277494,
                    0.61459235
                ],
                "xyz": [
                    5.363444786180517,
                    -2.274924534604006,
                    3.1422532170305923
                ],
                "label": "O",
                "properties": {}
            },
            {
                "species": [
                    {
                        "element": "O",
                        "occu": 1
                    }
                ],
                "abc": [
                    0.36277494,
                    0.87053921,
                    0.11459235
                ],
                "xyz": [
                    5.838627381180516,
                    2.274924534604006,
                    0.5855936820305925
                ],
                "label": "O",
                "properties": {}
            },
            {
                "species": [
                    {
                        "element": "O",
                        "occu": 1
                    }
                ],
                "abc": [
                    0.12946079,
                    0.63722506,
                    0.38540765
                ],
                "xyz": [
                    3.3309864638194835,
                    2.274924534604006,
                    1.9704924929694074
                ],
                "label": "O",
                "properties": {}
            },
            {
                "species": [
                    {
                        "element": "O",
                        "occu": 1
                    }
                ],
                "abc": [
                    0.79081069,
                    0.93485889,
                    0.39928144
                ],
                "xyz": [
                    7.942402729311073,
                    0.6453758243870618,
                    2.0411586864938664
                ],
                "label": "O",
                "properties": {}
            },
            {
                "species": [
                    {
                        "element": "O",
                        "occu": 1
                    }
                ],
                "abc": [
                    0.06514111,
                    0.20918931,
                    0.10071856
                ],
                "xyz": [
                    1.2272111156889258,
                    0.645375824387062,
                    0.5149274885061336
                ],
                "label": "O",
                "properties": {}
            },
            {
                "species": [
                    {
                        "element": "O",
                        "occu": 1
                    }
                ],
                "abc": [
                    0.20918931,
                    0.06514111,
                    0.60071856
                ],
                "xyz": [
                    0.7520285206889259,
                    -0.645375824387062,
                    3.0715870235061336
                ],
                "label": "O",
                "properties": {}
            },
            {
                "species": [
                    {
                        "element": "O",
                        "occu": 1
                    }
                ],
                "abc": [
                    0.93485889,
                    0.79081069,
                    0.89928144
                ],
                "xyz": [
                    7.467220134311074,
                    -0.6453758243870618,
                    4.597818221493866
                ],
                "label": "O",
                "properties": {}
            }
        ]
    },
    "spacegroup": {
        "source": "spglib",
        "symbol": "C2/c",
        "number": 15,
        "point_group": "2/m",
        "crystal_system": "monoclinic",
        "hall": "-C 2yc"
    },
    "dielectric": {
        "epsilon_ionic": [
            [
                6.16052151,
                -0.0,
                -0.41401827
            ],
            [
                -0.0,
                4.60128771,
                0.0
            ],
            [
                -0.41401827,
                0.0,
                4.5979741
            ]
        ],
        "epsilon_ionic_avg": 5.119927773333334,
        "epsilon_ionic_eig": [
            6.263442201056783,
            4.495053408943217,
            4.60128771
        ],
        "epsilon_electronic": [
            [
                3.44094126,
                0.0,
                0.0291684
            ],
            [
                0.0,
                3.407148,
                0.0
            ],
            [
                0.02916562,
                0.0,
                3.54021144
            ]
        ],
        "epsilon_electronic_avg": 3.4627669,
        "epsilon_electronic_eig": [
            3.43300590072508,
            3.54814679927492,
            3.407148
        ]
    },
    "phonon": {
        "lowest_freq": -0.045496335956607736,
        "frequency": [
            -0.045496335956607736,
            -0.03402560558840385,
            -0.03151526516575204,
            3.239066991580498,
            3.484743881605564,
            4.910476342701757,
            5.261340209784821,
            5.324246655065777,
            5.513894293370202,
            5.6316259785669205,
            5.794238906498695,
            6.017302597507885,
            6.208825475847513,
            6.230318880932377,
            7.060332992693708,
            7.626517655553033,
            7.69547606934265,
            7.924761787115887,
            8.001140351364622,
            8.085860111695665,
            8.141638874541439,
            8.610365736379823,
            8.77531604328494,
            9.31560912700828,
            9.456726471465824,
            9.783318580455067,
            9.853045221135242,
            10.053450316750345,
            10.059500623053049,
            10.35046761097436,
            11.119898776843343,
            11.410969664974573,
            11.466237982323474,
            11.55177495418019,
            11.906215169810348,
            12.0563177473878,
            12.115563352517308,
            12.598131651477008,
            12.793703958710342,
            13.421210435356562,
            13.629291314154406,
            13.73491738017918,
            13.765193715007067,
            14.172556494392847,
            16.402746539967694,
            16.981001152672903,
            17.511725979325586,
            17.809960581191568,
            20.13393384924175,
            20.15623161488119,
            21.111633338004335,
            21.258751421245275,
            22.127479806297316,
            22.998242707647513,
            23.03018975463708,
            23.70358156619535,
            24.749882934166227,
            24.921864851825095,
            24.98569372216073,
            25.17334341844538
        ]
    },
    "born_effective_charge": {
        "avg_abs_trace": 2.1766015,
        "tensors": [
            [
                [
                    2.29887,
                    -1e-05,
                    0.125
                ],
                [
                    0.0,
                    2.3503,
                    0.0
                ],
                [
                    0.20067,
                    2e-05,
                    2.01963
                ]
            ],
            [
                [
                    2.29887,
                    1e-05,
                    0.125
                ],
                [
                    0.0,
                    2.35028,
                    0.0
                ],
                [
                    0.20067,
                    -2e-05,
                    2.01963
                ]
            ],
            [
                [
                    2.39621,
                    -0.0,
                    -0.04096
                ],
                [
                    0.0,
                    2.09038,
                    0.0
                ],
                [
                    0.01571,
                    -1e-05,
                    2.22068
                ]
            ],
            [
                [
                    2.39621,
                    0.0,
                    -0.04096
                ],
                [
                    0.0,
                    2.09041,
                    0.0
                ],
                [
                    0.01571,
                    1e-05,
                    2.22068
                ]
            ],
            [
                [
                    2.99265,
                    0.22989,
                    0.00232
                ],
                [
                    -0.29307,
                    3.09021,
                    0.1869
                ],
                [
                    -0.04131,
                    -0.32656,
                    3.55367
                ]
            ],
            [
                [
                    2.99267,
                    -0.22998,
                    0.00226
                ],
                [
                    0.29307,
                    3.09021,
                    -0.1869
                ],
                [
                    -0.04127,
                    0.32649,
                    3.55354
                ]
            ],
            [
                [
                    2.99267,
                    0.22998,
                    0.00226
                ],
                [
                    -0.29307,
                    3.09021,
                    0.18691
                ],
                [
                    -0.04127,
                    -0.32649,
                    3.55354
                ]
            ],
            [
                [
                    2.99265,
                    -0.22989,
                    0.00232
                ],
                [
                    0.29307,
                    3.09021,
                    -0.18691
                ],
                [
                    -0.04131,
                    0.32656,
                    3.55367
                ]
            ],
            [
                [
                    -2.25974,
                    -0.05693,
                    -0.20832
                ],
                [
                    0.14993,
                    -1.65755,
                    0.01865
                ],
                [
                    -0.23182,
                    0.04932,
                    -1.62443
                ]
            ],
            [
                [
                    -2.2598,
                    0.05701,
                    -0.20832
                ],
                [
                    -0.14993,
                    -1.65755,
                    -0.01865
                ],
                [
                    -0.23183,
                    -0.0493,
                    -1.62444
                ]
            ],
            [
                [
                    -2.2598,
                    -0.05701,
                    -0.20832
                ],
                [
                    0.15012,
                    -1.65754,
                    0.01877
                ],
                [
                    -0.23183,
                    0.0493,
                    -1.62444
                ]
            ],
            [
                [
                    -2.25974,
                    0.05693,
                    -0.20832
                ],
                [
                    -0.15012,
                    -1.65754,
                    -0.01877
                ],
                [
                    -0.23182,
                    -0.04932,
                    -1.62443
                ]
            ],
            [
                [
                    -1.58636,
                    -0.31126,
                    -0.18067
                ],
                [
                    -0.26102,
                    -1.8531,
                    -0.27427
                ],
                [
                    -0.18757,
                    -0.09761,
                    -1.72417
                ]
            ],
            [
                [
                    -1.58632,
                    0.31131,
                    -0.18066
                ],
                [
                    0.26102,
                    -1.8531,
                    0.27427
                ],
                [
                    -0.18751,
                    0.09743,
                    -1.72412
                ]
            ],
            [
                [
                    -1.58632,
                    -0.31131,
                    -0.18066
                ],
                [
                    -0.26098,
                    -1.85311,
                    -0.27429
                ],
                [
                    -0.18751,
                    -0.09743,
                    -1.72412
                ]
            ],
            [
                [
                    -1.58636,
                    0.31126,
                    -0.18067
                ],
                [
                    0.26098,
                    -1.85311,
                    0.27429
                ],
                [
                    -0.18757,
                    0.09761,
                    -1.72417
                ]
            ],
            [
                [
                    -1.49404,
                    -0.09856,
                    0.34468
                ],
                [
                    -0.07936,
                    -1.79986,
                    -0.52614
                ],
                [
                    0.35247,
                    -0.56761,
                    -2.32527
                ]
            ],
            [
                [
                    -1.49415,
                    0.0986,
                    0.34466
                ],
                [
                    0.07936,
                    -1.79986,
                    0.52614
                ],
                [
                    0.35247,
                    0.56729,
                    -2.32508
                ]
            ],
            [
                [
                    -1.49415,
                    -0.0986,
                    0.34466
                ],
                [
                    -0.07928,
                    -1.79994,
                    -0.52616
                ],
                [
                    0.35247,
                    -0.56729,
                    -2.32508
                ]
            ],
            [
                [
                    -1.49404,
                    0.09856,
                    0.34468
                ],
                [
                    0.07928,
                    -1.79994,
                    0.52616
                ],
                [
                    0.35247,
                    0.56761,
                    -2.32527
                ]
            ]
        ]
    },
    "band_gap": 2.3553000000000006,
    "is_direct": false,
    "formula": "MgGeO3"
}