{
    "mp_id": "mp-4609",
    "nelements": 3,
    "nsites": 12,
    "elements": [
        "Hf",
        "O",
        "Si"
    ],
    "structure": {
        "@module": "pymatgen.core.structure",
        "@class": "Structure",
        "charge": null,
        "lattice": {
            "matrix": [
                [
                    -3.3166464,
                    3.3166464,
                    2.99901417
                ],
                [
                    3.3166464,
                    -3.3166464,
                    2.99901417
                ],
                [
                    3.3166464,
                    3.3166464,
                    -2.99901417
                ]
            ],
            "a": 5.5672589913822685,
            "b": 5.5672589913822685,
            "c": 5.5672589913822685,
            "alpha": 106.86900103398953,
            "beta": 106.86900103398953,
            "gamma": 114.8112953974698,
            "volume": 131.95834302634967
        },
        "sites": [
            {
                "species": [
                    {
                        "element": "Hf",
                        "occu": 1
                    }
                ],
                "abc": [
                    0.0,
                    0.0,
                    0.0
                ],
                "xyz": [
                    0.0,
                    0.0,
                    0.0
                ],
                "label": "Hf",
                "properties": {}
            },
            {
                "species": [
                    {
                        "element": "Hf",
                        "occu": 1
                    }
                ],
                "abc": [
                    0.75,
                    0.25,
                    0.5
                ],
                "xyz": [
                    -2.220446049250313e-16,
                    3.3166464000000007,
                    1.499507085
                ],
                "label": "Hf",
                "properties": {}
            },
            {
                "species": [
                    {
                        "element": "Si",
                        "occu": 1
                    }
                ],
                "abc": [
                    0.25,
                    0.75,
                    0.5
                ],
                "xyz": [
                    3.3166464000000007,
                    -2.220446049250313e-16,
                    1.499507085
                ],
                "label": "Si",
                "properties": {}
            },
            {
                "species": [
                    {
                        "element": "Si",
                        "occu": 1
                    }
                ],
                "abc": [
                    0.5,
                    0.5,
                    0.0
                ],
                "xyz": [
                    0.0,
                    0.0,
                    2.99901417
                ],
                "label": "Si",
                "properties": {}
            },
            {
                "species": [
                    {
                        "element": "O",
                        "occu": 1
                    }
                ],
                "abc": [
                    0.13485611,
                    0.31861365,
                    0.81624246
                ],
                "xyz": [
                    3.3166464000000007,
                    2.0977288329722876,
                    -1.087960467789159
                ],
                "label": "O",
                "properties": {}
            },
            {
                "species": [
                    {
                        "element": "O",
                        "occu": 1
                    }
                ],
                "abc": [
                    0.06861365,
                    0.75237019,
                    0.68375754
                ],
                "xyz": [
                    4.535560650381312,
                    3.3166463997424955e-06,
                    0.4115436181966712
                ],
                "label": "O",
                "properties": {}
            },
            {
                "species": [
                    {
                        "element": "O",
                        "occu": 1
                    }
                ],
                "abc": [
                    0.06861365,
                    0.38485611,
                    0.31624246
                ],
                "xyz": [
                    2.0977288329722876,
                    2.220446049250313e-16,
                    0.41154661721084085
                ],
                "label": "O",
                "properties": {}
            },
            {
                "species": [
                    {
                        "element": "O",
                        "occu": 1
                    }
                ],
                "abc": [
                    0.50237019,
                    0.31861365,
                    0.18375754
                ],
                "xyz": [
                    3.31664639996454e-06,
                    1.2189142503813122,
                    1.9110507031966715
                ],
                "label": "O",
                "properties": {}
            },
            {
                "species": [
                    {
                        "element": "O",
                        "occu": 1
                    }
                ],
                "abc": [
                    0.68138635,
                    0.49762981,
                    0.81624246
                ],
                "xyz": [
                    2.097732149618688,
                    3.3166430833536005,
                    1.0879634668033296
                ],
                "label": "O",
                "properties": {}
            },
            {
                "species": [
                    {
                        "element": "O",
                        "occu": 1
                    }
                ],
                "abc": [
                    0.61514389,
                    0.93138635,
                    0.68375754
                ],
                "xyz": [
                    3.3166463999999998,
                    1.2189175670277121,
                    2.587467552789159
                ],
                "label": "O",
                "properties": {}
            },
            {
                "species": [
                    {
                        "element": "O",
                        "occu": 1
                    }
                ],
                "abc": [
                    0.24762981,
                    0.93138635,
                    0.31624246
                ],
                "xyz": [
                    3.3166430833536005,
                    -1.2189142503813122,
                    2.587470551803329
                ],
                "label": "O",
                "properties": {}
            },
            {
                "species": [
                    {
                        "element": "O",
                        "occu": 1
                    }
                ],
                "abc": [
                    0.68138635,
                    0.86514389,
                    0.18375754
                ],
                "xyz": [
                    1.2189175670277121,
                    0.0,
                    4.08697463778916
                ],
                "label": "O",
                "properties": {}
            }
        ]
    },
    "spacegroup": {
        "source": "spglib",
        "symbol": "I4_1/amd",
        "number": 141,
        "point_group": "4/mmm",
        "crystal_system": "tetragonal",
        "hall": "I 4bw 2bw -1bw"
    },
    "dielectric": {
        "epsilon_ionic": [
            [
                6.73108741,
                0.0,
                -0.0
            ],
            [
                0.0,
                6.73108412,
                -0.0
            ],
            [
                -0.0,
                -0.0,
                7.42632377
            ]
        ],
        "epsilon_ionic_avg": 6.962831766666667,
        "epsilon_ionic_eig": [
            6.73108741,
            6.73108412,
            7.42632377
        ],
        "epsilon_electronic": [
            [
                3.65781456,
                0.0,
                0.0
            ],
            [
                0.0,
                3.65781456,
                0.0
            ],
            [
                0.0,
                0.0,
                3.93185858
            ]
        ],
        "epsilon_electronic_avg": 3.749162566666667,
        "epsilon_electronic_eig": [
            3.65781456,
            3.65781456,
            3.93185858
        ]
    },
    "phonon": {
        "lowest_freq": -0.014302384576198876,
        "frequency": [
            -0.014302384576198876,
            -0.014302384576198876,
            -0.010583815145506792,
            4.164609518669266,
            4.557522408006215,
            4.851232230071762,
            4.851232230071762,
            6.353801237660993,
            6.353801237660993,
            7.334706589903843,
            7.522033349337016,
            7.593213357959346,
            7.593213357959346,
            8.842828024197845,
            10.641612143145297,
            10.641612143145297,
            11.552276457817975,
            11.552276457817975,
            11.781373014042911,
            11.827215271905581,
            12.407384831909031,
            12.407384831909031,
            13.469947857185126,
            15.744769097195682,
            15.744769097195682,
            16.75483218561557,
            17.58092381078976,
            18.819398816819195,
            25.962246282859994,
            25.962246282859994,
            27.5950969756888,
            27.5950969756888,
            27.705926627230152,
            28.55692061276911,
            29.176775716239916,
            30.176368669129303
        ]
    },
    "born_effective_charge": {
        "avg_abs_trace": 2.821232777777778,
        "tensors": [
            [
                [
                    5.18024,
                    -0.0,
                    0.0
                ],
                [
                    0.0,
                    5.18024,
                    -1e-05
                ],
                [
                    -0.0,
                    -0.0,
                    4.81564
                ]
            ],
            [
                [
                    5.18024,
                    -0.0,
                    -0.0
                ],
                [
                    0.0,
                    5.18024,
                    1e-05
                ],
                [
                    -0.0,
                    -0.0,
                    4.81564
                ]
            ],
            [
                [
                    3.06105,
                    -0.0,
                    -3e-05
                ],
                [
                    0.0,
                    3.06105,
                    0.0
                ],
                [
                    -0.0,
                    -0.0,
                    4.09287
                ]
            ],
            [
                [
                    3.06105,
                    -0.0,
                    3e-05
                ],
                [
                    0.0,
                    3.06105,
                    -0.0
                ],
                [
                    -0.0,
                    -0.0,
                    4.09287
                ]
            ],
            [
                [
                    -1.15925,
                    -8e-05,
                    1e-05
                ],
                [
                    0.0,
                    -2.96143,
                    -0.33409
                ],
                [
                    -0.0,
                    -0.1851,
                    -2.22714
                ]
            ],
            [
                [
                    -2.9614,
                    -0.0,
                    0.33413
                ],
                [
                    1e-05,
                    -1.15925,
                    2e-05
                ],
                [
                    0.1851,
                    -0.0,
                    -2.22714
                ]
            ],
            [
                [
                    -2.96138,
                    -0.0,
                    -0.33414
                ],
                [
                    -1e-05,
                    -1.15925,
                    2e-05
                ],
                [
                    -0.1851,
                    -0.0,
                    -2.22714
                ]
            ],
            [
                [
                    -1.15925,
                    8e-05,
                    1e-05
                ],
                [
                    -0.0,
                    -2.96137,
                    0.33419
                ],
                [
                    0.0,
                    0.1851,
                    -2.22714
                ]
            ],
            [
                [
                    -2.96138,
                    -0.0,
                    0.33414
                ],
                [
                    -1e-05,
                    -1.15925,
                    -2e-05
                ],
                [
                    0.18515,
                    -0.0,
                    -2.22712
                ]
            ],
            [
                [
                    -1.15925,
                    8e-05,
                    -1e-05
                ],
                [
                    0.0,
                    -2.96137,
                    -0.33419
                ],
                [
                    -0.0,
                    -0.18515,
                    -2.22712
                ]
            ],
            [
                [
                    -1.15925,
                    -8e-05,
                    -1e-05
                ],
                [
                    0.0,
                    -2.96143,
                    0.33409
                ],
                [
                    -0.0,
                    0.18515,
                    -2.22712
                ]
            ],
            [
                [
                    -2.9614,
                    0.0,
                    -0.33413
                ],
                [
                    1e-05,
                    -1.15925,
                    -2e-05
                ],
                [
                    -0.18515,
                    -0.0,
                    -2.22712
                ]
            ]
        ]
    },
    "band_gap": 5.6628,
    "is_direct": false,
    "formula": "HfSiO4"
}