{
    "mp_id": "mp-4995",
    "nelements": 3,
    "nsites": 20,
    "elements": [
        "Li",
        "O",
        "Sb"
    ],
    "structure": {
        "@module": "pymatgen.core.structure",
        "@class": "Structure",
        "charge": null,
        "lattice": {
            "matrix": [
                [
                    5.2200471,
                    0.0,
                    0.0
                ],
                [
                    0.0,
                    4.92040825,
                    0.0
                ],
                [
                    0.0,
                    0.0,
                    8.52537018
                ]
            ],
            "a": 5.2200471,
            "b": 4.92040825,
            "c": 8.52537018,
            "alpha": 90.0,
            "beta": 90.0,
            "gamma": 90.0,
            "volume": 218.9721109938479
        },
        "sites": [
            {
                "species": [
                    {
                        "element": "Li",
                        "occu": 1
                    }
                ],
                "abc": [
                    0.75,
                    0.5,
                    0.80623311
                ],
                "xyz": [
                    3.9150353250000003,
                    2.460204125,
                    6.873435714122659
                ],
                "label": "Li",
                "properties": {}
            },
            {
                "species": [
                    {
                        "element": "Li",
                        "occu": 1
                    }
                ],
                "abc": [
                    0.75,
                    0.0,
                    0.69376689
                ],
                "xyz": [
                    3.9150353250000003,
                    0.0,
                    5.91461955587734
                ],
                "label": "Li",
                "properties": {}
            },
            {
                "species": [
                    {
                        "element": "Li",
                        "occu": 1
                    }
                ],
                "abc": [
                    0.25,
                    0.5,
                    0.19376689
                ],
                "xyz": [
                    1.305011775,
                    2.460204125,
                    1.65193446587734
                ],
                "label": "Li",
                "properties": {}
            },
            {
                "species": [
                    {
                        "element": "Li",
                        "occu": 1
                    }
                ],
                "abc": [
                    0.25,
                    0.0,
                    0.30623311
                ],
                "xyz": [
                    1.305011775,
                    0.0,
                    2.6107506241226592
                ],
                "label": "Li",
                "properties": {}
            },
            {
                "species": [
                    {
                        "element": "Sb",
                        "occu": 1
                    }
                ],
                "abc": [
                    0.75,
                    0.5,
                    0.4054352
                ],
                "xyz": [
                    3.9150353250000003,
                    2.460204125,
                    3.456485164002336
                ],
                "label": "Sb",
                "properties": {}
            },
            {
                "species": [
                    {
                        "element": "Sb",
                        "occu": 1
                    }
                ],
                "abc": [
                    0.25,
                    0.0,
                    0.9054352
                ],
                "xyz": [
                    1.305011775,
                    0.0,
                    7.719170254002336
                ],
                "label": "Sb",
                "properties": {}
            },
            {
                "species": [
                    {
                        "element": "Sb",
                        "occu": 1
                    }
                ],
                "abc": [
                    0.25,
                    0.5,
                    0.5945648
                ],
                "xyz": [
                    1.305011775,
                    2.460204125,
                    5.0688850159976635
                ],
                "label": "Sb",
                "properties": {}
            },
            {
                "species": [
                    {
                        "element": "Sb",
                        "occu": 1
                    }
                ],
                "abc": [
                    0.75,
                    0.0,
                    0.0945648
                ],
                "xyz": [
                    3.9150353250000003,
                    0.0,
                    0.806199925997664
                ],
                "label": "Sb",
                "properties": {}
            },
            {
                "species": [
                    {
                        "element": "O",
                        "occu": 1
                    }
                ],
                "abc": [
                    0.57607443,
                    0.7926523,
                    0.91802493
                ],
                "xyz": [
                    3.0071356577056534,
                    3.900172916301475,
                    7.826502362718586
                ],
                "label": "O",
                "properties": {}
            },
            {
                "species": [
                    {
                        "element": "O",
                        "occu": 1
                    }
                ],
                "abc": [
                    0.57607443,
                    0.7073477,
                    0.58197507
                ],
                "xyz": [
                    3.0071356577056534,
                    3.4804394586985254,
                    4.961552907281413
                ],
                "label": "O",
                "properties": {}
            },
            {
                "species": [
                    {
                        "element": "O",
                        "occu": 1
                    }
                ],
                "abc": [
                    0.92392557,
                    0.2073477,
                    0.91802493
                ],
                "xyz": [
                    4.822934992294347,
                    1.020235333698525,
                    7.826502362718586
                ],
                "label": "O",
                "properties": {}
            },
            {
                "species": [
                    {
                        "element": "O",
                        "occu": 1
                    }
                ],
                "abc": [
                    0.41141177,
                    0.25,
                    0.75
                ],
                "xyz": [
                    2.147588816894367,
                    1.2301020625,
                    6.394027635
                ],
                "label": "O",
                "properties": {}
            },
            {
                "species": [
                    {
                        "element": "O",
                        "occu": 1
                    }
                ],
                "abc": [
                    0.58858823,
                    0.75,
                    0.25
                ],
                "xyz": [
                    3.0724582831056333,
                    3.6903061875,
                    2.131342545
                ],
                "label": "O",
                "properties": {}
            },
            {
                "species": [
                    {
                        "element": "O",
                        "occu": 1
                    }
                ],
                "abc": [
                    0.91141177,
                    0.25,
                    0.25
                ],
                "xyz": [
                    4.757612366894367,
                    1.2301020625,
                    2.131342545
                ],
                "label": "O",
                "properties": {}
            },
            {
                "species": [
                    {
                        "element": "O",
                        "occu": 1
                    }
                ],
                "abc": [
                    0.07607443,
                    0.7073477,
                    0.41802493
                ],
                "xyz": [
                    0.39711210770565303,
                    3.4804394586985254,
                    3.5638172727185875
                ],
                "label": "O",
                "properties": {}
            },
            {
                "species": [
                    {
                        "element": "O",
                        "occu": 1
                    }
                ],
                "abc": [
                    0.08858823,
                    0.75,
                    0.75
                ],
                "xyz": [
                    0.46243473310563304,
                    3.6903061875,
                    6.394027635
                ],
                "label": "O",
                "properties": {}
            },
            {
                "species": [
                    {
                        "element": "O",
                        "occu": 1
                    }
                ],
                "abc": [
                    0.42392557,
                    0.2926523,
                    0.41802493
                ],
                "xyz": [
                    2.212911442294347,
                    1.439968791301475,
                    3.5638172727185875
                ],
                "label": "O",
                "properties": {}
            },
            {
                "species": [
                    {
                        "element": "O",
                        "occu": 1
                    }
                ],
                "abc": [
                    0.42392557,
                    0.2073477,
                    0.08197507
                ],
                "xyz": [
                    2.212911442294347,
                    1.020235333698525,
                    0.6988678172814126
                ],
                "label": "O",
                "properties": {}
            },
            {
                "species": [
                    {
                        "element": "O",
                        "occu": 1
                    }
                ],
                "abc": [
                    0.07607443,
                    0.7926523,
                    0.08197507
                ],
                "xyz": [
                    0.39711210770565303,
                    3.900172916301475,
                    0.6988678172814126
                ],
                "label": "O",
                "properties": {}
            },
            {
                "species": [
                    {
                        "element": "O",
                        "occu": 1
                    }
                ],
                "abc": [
                    0.92392557,
                    0.2926523,
                    0.58197507
                ],
                "xyz": [
                    4.822934992294347,
                    1.439968791301475,
                    4.961552907281413
                ],
                "label": "O",
                "properties": {}
            }
        ]
    },
    "spacegroup": {
        "source": "spglib",
        "symbol": "Pnna",
        "number": 52,
        "point_group": "mmm",
        "crystal_system": "orthorhombic",
        "hall": "-P 2a 2bc"
    },
    "dielectric": {
        "epsilon_ionic": [
            [
                8.48865863,
                -0.0,
                0.0
            ],
            [
                -0.0,
                8.15129693,
                -0.0
            ],
            [
                0.0,
                -0.0,
                8.94983487
            ]
        ],
        "epsilon_ionic_avg": 8.529930143333333,
        "epsilon_ionic_eig": [
            8.48865863,
            8.15129693,
            8.94983487
        ],
        "epsilon_electronic": [
            [
                4.00488991,
                0.0,
                0.0
            ],
            [
                -0.0,
                3.47724222,
                0.0
            ],
            [
                0.0,
                0.0,
                3.96424305
            ]
        ],
        "epsilon_electronic_avg": 3.8154583933333335,
        "epsilon_electronic_eig": [
            4.00488991,
            3.47724222,
            3.96424305
        ]
    },
    "phonon": {
        "lowest_freq": -0.11819878046557711,
        "frequency": [
            -0.11819878046557711,
            -0.03277033423054907,
            -0.018412981208851077,
            2.4616036140651194,
            2.7548965528123395,
            4.45177851744979,
            4.583307404063311,
            5.217785428672438,
            5.532653297134361,
            5.5582938819400995,
            5.759582075521004,
            5.897632275416469,
            6.5838004408256205,
            6.613442314693146,
            6.936500025983907,
            7.067372651983169,
            7.2015230643889305,
            7.687302345648515,
            7.7333538028002,
            7.999399563245811,
            8.082641833134138,
            8.223854392763124,
            8.388960940588662,
            8.922548762002938,
            9.028595537756177,
            9.091198211015552,
            9.170987604850726,
            9.652805885659292,
            10.411015759924824,
            10.522239371170148,
            10.663030889822899,
            11.399579639533151,
            11.423867020258008,
            11.513450314996046,
            12.84337149229277,
            12.856788548018576,
            13.328936507718964,
            13.893673138337924,
            14.615638995866611,
            15.213861431840861,
            15.574960526875351,
            15.593091978129701,
            15.745181915970308,
            16.07742649059361,
            16.438668908546514,
            16.732500598237117,
            17.151302392787173,
            17.390124313091064,
            17.920970684662468,
            17.956164593239556,
            18.374658749685775,
            19.04732209428805,
            19.31063875118744,
            19.669758202134805,
            19.695694801643405,
            20.02268182275532,
            20.37057817578941,
            20.659297982508132,
            21.39432257987575,
            22.820641951357047
        ]
    },
    "born_effective_charge": {
        "avg_abs_trace": 2.2981353333333328,
        "tensors": [
            [
                [
                    1.20482,
                    -0.02166,
                    -0.0
                ],
                [
                    -0.00364,
                    1.16925,
                    -3e-05
                ],
                [
                    -0.0,
                    -0.0,
                    1.09482
                ]
            ],
            [
                [
                    1.20482,
                    0.02166,
                    0.0
                ],
                [
                    0.00364,
                    1.16925,
                    3e-05
                ],
                [
                    -0.0,
                    -0.0,
                    1.09479
                ]
            ],
            [
                [
                    1.20482,
                    -0.02166,
                    0.0
                ],
                [
                    -0.00364,
                    1.16925,
                    3e-05
                ],
                [
                    -0.0,
                    -0.0,
                    1.09479
                ]
            ],
            [
                [
                    1.20482,
                    0.02166,
                    -0.0
                ],
                [
                    0.00364,
                    1.16925,
                    -3e-05
                ],
                [
                    -0.0,
                    -0.0,
                    1.09482
                ]
            ],
            [
                [
                    4.9126,
                    0.01775,
                    3e-05
                ],
                [
                    -0.51769,
                    3.94218,
                    1e-05
                ],
                [
                    -0.0,
                    -0.0,
                    4.91237
                ]
            ],
            [
                [
                    4.9126,
                    -0.01775,
                    3e-05
                ],
                [
                    0.51769,
                    3.94218,
                    1e-05
                ],
                [
                    -0.0,
                    -0.0,
                    4.91237
                ]
            ],
            [
                [
                    4.9126,
                    0.01775,
                    -3e-05
                ],
                [
                    -0.51769,
                    3.94218,
                    -1e-05
                ],
                [
                    -0.0,
                    -0.0,
                    4.91234
                ]
            ],
            [
                [
                    4.9126,
                    -0.01775,
                    -3e-05
                ],
                [
                    0.51769,
                    3.94218,
                    -1e-05
                ],
                [
                    -0.0,
                    -0.0,
                    4.91234
                ]
            ],
            [
                [
                    -2.23074,
                    0.08209,
                    -0.3987
                ],
                [
                    0.15198,
                    -1.48529,
                    -0.19063
                ],
                [
                    -0.37493,
                    -0.17892,
                    -1.88786
                ]
            ],
            [
                [
                    -2.23074,
                    -0.08209,
                    0.3987
                ],
                [
                    -0.15196,
                    -1.48527,
                    -0.19064
                ],
                [
                    0.37512,
                    -0.17859,
                    -1.88796
                ]
            ],
            [
                [
                    -2.23075,
                    0.08215,
                    0.39866
                ],
                [
                    0.15196,
                    -1.48527,
                    0.19064
                ],
                [
                    0.37493,
                    0.17892,
                    -1.88786
                ]
            ],
            [
                [
                    -1.65588,
                    0.0,
                    0.0
                ],
                [
                    -5e-05,
                    -2.14087,
                    0.96787
                ],
                [
                    3e-05,
                    0.93076,
                    -2.23135
                ]
            ],
            [
                [
                    -1.65598,
                    0.0,
                    0.0
                ],
                [
                    5e-05,
                    -2.14087,
                    0.96787
                ],
                [
                    -3e-05,
                    0.93076,
                    -2.23135
                ]
            ],
            [
                [
                    -1.65588,
                    0.0,
                    0.0
                ],
                [
                    -5e-05,
                    -2.14087,
                    -0.96787
                ],
                [
                    3e-05,
                    -0.93076,
                    -2.23135
                ]
            ],
            [
                [
                    -2.23074,
                    -0.08209,
                    -0.3987
                ],
                [
                    -0.15196,
                    -1.48527,
                    0.19064
                ],
                [
                    -0.37493,
                    0.17892,
                    -1.88786
                ]
            ],
            [
                [
                    -1.65598,
                    0.0,
                    0.0
                ],
                [
                    5e-05,
                    -2.14087,
                    -0.96787
                ],
                [
                    -3e-05,
                    -0.93076,
                    -2.23135
                ]
            ],
            [
                [
                    -2.23075,
                    -0.08215,
                    0.39866
                ],
                [
                    -0.15198,
                    -1.48529,
                    -0.19063
                ],
                [
                    0.37493,
                    -0.17892,
                    -1.88786
                ]
            ],
            [
                [
                    -2.23075,
                    0.08215,
                    -0.39866
                ],
                [
                    0.15196,
                    -1.48527,
                    -0.19064
                ],
                [
                    -0.37512,
                    -0.17859,
                    -1.88796
                ]
            ],
            [
                [
                    -2.23074,
                    0.08209,
                    0.3987
                ],
                [
                    0.15198,
                    -1.48529,
                    0.19063
                ],
                [
                    0.37512,
                    0.17859,
                    -1.88796
                ]
            ],
            [
                [
                    -2.23075,
                    -0.08215,
                    -0.39866
                ],
                [
                    -0.15198,
                    -1.48529,
                    0.19063
                ],
                [
                    -0.37512,
                    0.17859,
                    -1.88796
                ]
            ]
        ]
    },
    "band_gap": 2.3049999999999997,
    "is_direct": true,
    "formula": "LiSbO3"
}