{
    "mp_id": "mp-4584",
    "nelements": 3,
    "nsites": 14,
    "elements": [
        "B",
        "O",
        "Tl"
    ],
    "structure": {
        "@module": "pymatgen.core.structure",
        "@class": "Structure",
        "charge": null,
        "lattice": {
            "matrix": [
                [
                    9.22194458,
                    -4.3e-07,
                    0.0
                ],
                [
                    -4.61097242,
                    7.98643817,
                    0.0
                ],
                [
                    0.0,
                    0.0,
                    3.68775452
                ]
            ],
            "a": 9.221944580000011,
            "b": 9.221944550973705,
            "c": 3.68775452,
            "alpha": 90.0,
            "beta": 90.0,
            "gamma": 120.00000370833915,
            "volume": 271.60492080629047
        },
        "sites": [
            {
                "species": [
                    {
                        "element": "Tl",
                        "occu": 1
                    }
                ],
                "abc": [
                    0.70341852,
                    0.64990032,
                    0.75
                ],
                "xyz": [
                    3.490214156716448,
                    5.19038841987325,
                    2.76581589
                ],
                "label": "Tl",
                "properties": {}
            },
            {
                "species": [
                    {
                        "element": "Tl",
                        "occu": 1
                    }
                ],
                "abc": [
                    0.0535182,
                    0.70341852,
                    0.25
                ],
                "xyz": [
                    -2.749901521015863,
                    5.617808494600082,
                    0.92193863
                ],
                "label": "Tl",
                "properties": {}
            },
            {
                "species": [
                    {
                        "element": "Tl",
                        "occu": 1
                    }
                ],
                "abc": [
                    0.64990032,
                    0.9464818,
                    0.25
                ],
                "xyz": [
                    1.6291432577323093,
                    7.559018095273168,
                    0.92193863
                ],
                "label": "Tl",
                "properties": {}
            },
            {
                "species": [
                    {
                        "element": "Tl",
                        "occu": 1
                    }
                ],
                "abc": [
                    0.35009968,
                    0.0535182,
                    0.75
                ],
                "xyz": [
                    2.981828902267691,
                    0.4274196447268316,
                    2.76581589
                ],
                "label": "Tl",
                "properties": {}
            },
            {
                "species": [
                    {
                        "element": "Tl",
                        "occu": 1
                    }
                ],
                "abc": [
                    0.9464818,
                    0.29658148,
                    0.75
                ],
                "xyz": [
                    7.360873681015864,
                    2.368629245399917,
                    2.76581589
                ],
                "label": "Tl",
                "properties": {}
            },
            {
                "species": [
                    {
                        "element": "Tl",
                        "occu": 1
                    }
                ],
                "abc": [
                    0.29658148,
                    0.35009968,
                    0.25
                ],
                "xyz": [
                    1.1207580032835527,
                    2.796049320126749,
                    0.92193863
                ],
                "label": "Tl",
                "properties": {}
            },
            {
                "species": [
                    {
                        "element": "B",
                        "occu": 1
                    }
                ],
                "abc": [
                    0.333333,
                    0.666667,
                    0.75
                ],
                "xyz": [
                    -4.6976390004616064e-06,
                    5.3242946321462,
                    2.76581589
                ],
                "label": "B",
                "properties": {}
            },
            {
                "species": [
                    {
                        "element": "B",
                        "occu": 1
                    }
                ],
                "abc": [
                    0.666667,
                    0.333333,
                    0.25
                ],
                "xyz": [
                    4.610976857639001,
                    2.6621431078538,
                    0.92193863
                ],
                "label": "B",
                "properties": {}
            },
            {
                "species": [
                    {
                        "element": "O",
                        "occu": 1
                    }
                ],
                "abc": [
                    0.4327114,
                    0.84010299,
                    0.75
                ],
                "xyz": [
                    0.1167488330846762,
                    6.709430400001225,
                    2.76581589
                ],
                "label": "O",
                "properties": {}
            },
            {
                "species": [
                    {
                        "element": "O",
                        "occu": 1
                    }
                ],
                "abc": [
                    0.59260742,
                    0.4327114,
                    0.25
                ],
                "xyz": [
                    3.4697724537171952,
                    3.455822586732947,
                    0.92193863
                ],
                "label": "O",
                "properties": {}
            },
            {
                "species": [
                    {
                        "element": "O",
                        "occu": 1
                    }
                ],
                "abc": [
                    0.84010299,
                    0.40739258,
                    0.25
                ],
                "xyz": [
                    5.868907264779651,
                    3.253615289842493,
                    0.92193863
                ],
                "label": "O",
                "properties": {}
            },
            {
                "species": [
                    {
                        "element": "O",
                        "occu": 1
                    }
                ],
                "abc": [
                    0.15989701,
                    0.59260742,
                    0.75
                ],
                "xyz": [
                    -1.2579351047796508,
                    4.732822450157507,
                    2.76581589
                ],
                "label": "O",
                "properties": {}
            },
            {
                "species": [
                    {
                        "element": "O",
                        "occu": 1
                    }
                ],
                "abc": [
                    0.5672886,
                    0.15989701,
                    0.25
                ],
                "xyz": [
                    4.494223326915324,
                    1.2770073399987736,
                    0.92193863
                ],
                "label": "O",
                "properties": {}
            },
            {
                "species": [
                    {
                        "element": "O",
                        "occu": 1
                    }
                ],
                "abc": [
                    0.40739258,
                    0.5672886,
                    0.75
                ],
                "xyz": [
                    1.141199706282804,
                    4.530615153267052,
                    2.76581589
                ],
                "label": "O",
                "properties": {}
            }
        ]
    },
    "spacegroup": {
        "source": "spglib",
        "symbol": "P6_3/m",
        "number": 176,
        "point_group": "6/m",
        "crystal_system": "hexagonal",
        "hall": "-P 6c"
    },
    "dielectric": {
        "epsilon_ionic": [
            [
                5.29154289,
                7.822e-05,
                3.4e-07
            ],
            [
                7.822e-05,
                5.29171749,
                5.83e-06
            ],
            [
                3.4e-07,
                5.83e-06,
                11.04256293
            ]
        ],
        "epsilon_ionic_avg": 7.208607770000003,
        "epsilon_ionic_eig": [
            5.291512973710489,
            5.291747406283589,
            11.042562930005932
        ],
        "epsilon_electronic": [
            [
                6.75269087,
                8.9e-07,
                0.0
            ],
            [
                -5e-08,
                6.75268979,
                -0.0
            ],
            [
                0.0,
                0.0,
                6.12072754
            ]
        ],
        "epsilon_electronic_avg": 6.542036066666667,
        "epsilon_electronic_eig": [
            6.752690827091541,
            6.752689832908459,
            6.12072754
        ]
    },
    "phonon": {
        "lowest_freq": -0.03275417971894109,
        "frequency": [
            -0.03275417971894109,
            -0.0156599466587715,
            -0.015659945098101157,
            0.6744345075635351,
            0.9131315679083756,
            1.0538773567766697,
            1.0538773567766697,
            1.3035900973923125,
            1.3035900973923125,
            1.462533968471263,
            1.462534005234873,
            1.5334236152565104,
            2.0113982904483336,
            2.0113982965237125,
            2.6261007297166077,
            2.6379679701487215,
            2.637968169340019,
            3.1202507305145843,
            3.93978267058306,
            4.221545779440008,
            4.221545779440008,
            4.303225749873725,
            4.382213364546175,
            4.382213364546175,
            6.194734906931121,
            6.194735498724289,
            6.488337564489879,
            6.488338223672919,
            7.006920320574469,
            7.020045007710186,
            16.40756767932052,
            16.407567828276253,
            16.60486894347506,
            16.604869164253795,
            20.46885938097902,
            20.491417849703886,
            26.286021286086992,
            26.428531717375186,
            34.81414705546644,
            34.81415024962928,
            35.81669881775037,
            35.816702093095714
        ]
    },
    "born_effective_charge": {
        "avg_abs_trace": 2.1670721428571427,
        "tensors": [
            [
                [
                    1.59198,
                    0.27338,
                    0.0
                ],
                [
                    0.27767,
                    1.86337,
                    0.0
                ],
                [
                    0.00013,
                    0.00073,
                    1.79335
                ]
            ],
            [
                [
                    1.55681,
                    -0.25815,
                    0.0
                ],
                [
                    -0.25305,
                    1.89828,
                    0.0
                ],
                [
                    -0.00057,
                    0.00048,
                    1.79335
                ]
            ],
            [
                [
                    2.03424,
                    -0.02307,
                    0.0
                ],
                [
                    -0.01844,
                    1.42151,
                    0.0
                ],
                [
                    0.0007,
                    0.00025,
                    1.79335
                ]
            ],
            [
                [
                    2.0341,
                    -0.0231,
                    0.0
                ],
                [
                    -0.01821,
                    1.42034,
                    0.0
                ],
                [
                    -0.0007,
                    -0.00025,
                    1.79335
                ]
            ],
            [
                [
                    1.55678,
                    -0.25791,
                    0.0
                ],
                [
                    -0.25207,
                    1.89887,
                    0.0
                ],
                [
                    0.00057,
                    -0.00048,
                    1.79335
                ]
            ],
            [
                [
                    1.59215,
                    0.27363,
                    0.0
                ],
                [
                    0.27853,
                    1.86259,
                    0.0
                ],
                [
                    -0.00013,
                    -0.00073,
                    1.79335
                ]
            ],
            [
                [
                    3.59098,
                    -0.24122,
                    0.0
                ],
                [
                    0.24205,
                    3.59331,
                    0.0
                ],
                [
                    -0.0,
                    -0.0,
                    -0.17502
                ]
            ],
            [
                [
                    3.59107,
                    -0.24088,
                    0.0
                ],
                [
                    0.24322,
                    3.59208,
                    0.0
                ],
                [
                    -0.0,
                    -0.0,
                    -0.17502
                ]
            ],
            [
                [
                    -2.33912,
                    0.02784,
                    0.0
                ],
                [
                    -0.13751,
                    -3.5113,
                    0.0
                ],
                [
                    0.0012,
                    -0.00011,
                    -1.73501
                ]
            ],
            [
                [
                    -3.17,
                    0.6175,
                    0.0
                ],
                [
                    0.45158,
                    -2.67933,
                    0.0
                ],
                [
                    0.00069,
                    0.00098,
                    -1.73501
                ]
            ],
            [
                [
                    -3.26498,
                    -0.3968,
                    0.0
                ],
                [
                    -0.56286,
                    -2.58542,
                    0.0
                ],
                [
                    0.0005,
                    -0.00109,
                    -1.73501
                ]
            ],
            [
                [
                    -3.26496,
                    -0.39658,
                    0.0
                ],
                [
                    -0.56275,
                    -2.58386,
                    0.0
                ],
                [
                    -0.0005,
                    0.00109,
                    -1.73501
                ]
            ],
            [
                [
                    -2.33925,
                    0.02808,
                    0.0
                ],
                [
                    -0.13921,
                    -3.51006,
                    0.0
                ],
                [
                    -0.0012,
                    0.00011,
                    -1.73501
                ]
            ],
            [
                [
                    -3.16979,
                    0.61728,
                    0.0
                ],
                [
                    0.45105,
                    -2.68038,
                    0.0
                ],
                [
                    -0.00069,
                    -0.00098,
                    -1.73501
                ]
            ]
        ]
    },
    "band_gap": 1.2290999999999999,
    "is_direct": false,
    "formula": "Tl3BO3"
}