{
    "mp_id": "mp-4086",
    "nelements": 3,
    "nsites": 22,
    "elements": [
        "La",
        "O",
        "Sn"
    ],
    "structure": {
        "@module": "pymatgen.core.structure",
        "@class": "Structure",
        "charge": null,
        "lattice": {
            "matrix": [
                [
                    0.0,
                    5.35094652,
                    5.35094652
                ],
                [
                    5.35094652,
                    0.0,
                    5.35094652
                ],
                [
                    5.35094652,
                    5.35094652,
                    0.0
                ]
            ],
            "a": 7.567381140117116,
            "b": 7.567381140117116,
            "c": 7.567381140117116,
            "alpha": 60.00000000000001,
            "beta": 60.00000000000001,
            "gamma": 60.00000000000001,
            "volume": 306.4233293722895
        },
        "sites": [
            {
                "species": [
                    {
                        "element": "La",
                        "occu": 1
                    }
                ],
                "abc": [
                    0.625,
                    0.625,
                    0.125
                ],
                "xyz": [
                    4.01320989,
                    4.01320989,
                    6.68868315
                ],
                "label": "La",
                "properties": {}
            },
            {
                "species": [
                    {
                        "element": "La",
                        "occu": 1
                    }
                ],
                "abc": [
                    0.625,
                    0.125,
                    0.625
                ],
                "xyz": [
                    4.01320989,
                    6.68868315,
                    4.01320989
                ],
                "label": "La",
                "properties": {}
            },
            {
                "species": [
                    {
                        "element": "La",
                        "occu": 1
                    }
                ],
                "abc": [
                    0.125,
                    0.625,
                    0.625
                ],
                "xyz": [
                    6.68868315,
                    4.01320989,
                    4.01320989
                ],
                "label": "La",
                "properties": {}
            },
            {
                "species": [
                    {
                        "element": "La",
                        "occu": 1
                    }
                ],
                "abc": [
                    0.625,
                    0.625,
                    0.625
                ],
                "xyz": [
                    6.68868315,
                    6.68868315,
                    6.68868315
                ],
                "label": "La",
                "properties": {}
            },
            {
                "species": [
                    {
                        "element": "Sn",
                        "occu": 1
                    }
                ],
                "abc": [
                    0.125,
                    0.125,
                    0.625
                ],
                "xyz": [
                    4.01320989,
                    4.01320989,
                    1.33773663
                ],
                "label": "Sn",
                "properties": {}
            },
            {
                "species": [
                    {
                        "element": "Sn",
                        "occu": 1
                    }
                ],
                "abc": [
                    0.125,
                    0.625,
                    0.125
                ],
                "xyz": [
                    4.01320989,
                    1.33773663,
                    4.01320989
                ],
                "label": "Sn",
                "properties": {}
            },
            {
                "species": [
                    {
                        "element": "Sn",
                        "occu": 1
                    }
                ],
                "abc": [
                    0.625,
                    0.125,
                    0.125
                ],
                "xyz": [
                    1.33773663,
                    4.01320989,
                    4.01320989
                ],
                "label": "Sn",
                "properties": {}
            },
            {
                "species": [
                    {
                        "element": "Sn",
                        "occu": 1
                    }
                ],
                "abc": [
                    0.125,
                    0.125,
                    0.125
                ],
                "xyz": [
                    1.33773663,
                    1.33773663,
                    1.33773663
                ],
                "label": "Sn",
                "properties": {}
            },
            {
                "species": [
                    {
                        "element": "O",
                        "occu": 1
                    }
                ],
                "abc": [
                    0.75,
                    0.75,
                    0.75
                ],
                "xyz": [
                    8.02641978,
                    8.02641978,
                    8.02641978
                ],
                "label": "O",
                "properties": {}
            },
            {
                "species": [
                    {
                        "element": "O",
                        "occu": 1
                    }
                ],
                "abc": [
                    0.5,
                    0.5,
                    0.5
                ],
                "xyz": [
                    5.35094652,
                    5.35094652,
                    5.35094652
                ],
                "label": "O",
                "properties": {}
            },
            {
                "species": [
                    {
                        "element": "O",
                        "occu": 1
                    }
                ],
                "abc": [
                    0.04275253,
                    0.45724747,
                    0.04275253
                ],
                "xyz": [
                    2.6754732599999995,
                    0.45753300324939117,
                    2.6754732599999995
                ],
                "label": "O",
                "properties": {}
            },
            {
                "species": [
                    {
                        "element": "O",
                        "occu": 1
                    }
                ],
                "abc": [
                    0.79275253,
                    0.20724747,
                    0.79275253
                ],
                "xyz": [
                    5.35094652,
                    8.483952783249391,
                    5.35094652
                ],
                "label": "O",
                "properties": {}
            },
            {
                "species": [
                    {
                        "element": "O",
                        "occu": 1
                    }
                ],
                "abc": [
                    0.04275253,
                    0.04275253,
                    0.45724747
                ],
                "xyz": [
                    2.6754732599999995,
                    2.6754732599999995,
                    0.45753300324939117
                ],
                "label": "O",
                "properties": {}
            },
            {
                "species": [
                    {
                        "element": "O",
                        "occu": 1
                    }
                ],
                "abc": [
                    0.45724747,
                    0.04275253,
                    0.04275253
                ],
                "xyz": [
                    0.45753300324939117,
                    2.6754732599999995,
                    2.6754732599999995
                ],
                "label": "O",
                "properties": {}
            },
            {
                "species": [
                    {
                        "element": "O",
                        "occu": 1
                    }
                ],
                "abc": [
                    0.04275253,
                    0.45724747,
                    0.45724747
                ],
                "xyz": [
                    4.893413516750608,
                    2.6754732599999995,
                    2.6754732599999995
                ],
                "label": "O",
                "properties": {}
            },
            {
                "species": [
                    {
                        "element": "O",
                        "occu": 1
                    }
                ],
                "abc": [
                    0.45724747,
                    0.45724747,
                    0.04275253
                ],
                "xyz": [
                    2.6754732599999995,
                    2.6754732599999995,
                    4.893413516750608
                ],
                "label": "O",
                "properties": {}
            },
            {
                "species": [
                    {
                        "element": "O",
                        "occu": 1
                    }
                ],
                "abc": [
                    0.45724747,
                    0.04275253,
                    0.45724747
                ],
                "xyz": [
                    2.6754732599999995,
                    4.893413516750608,
                    2.6754732599999995
                ],
                "label": "O",
                "properties": {}
            },
            {
                "species": [
                    {
                        "element": "O",
                        "occu": 1
                    }
                ],
                "abc": [
                    0.20724747,
                    0.79275253,
                    0.79275253
                ],
                "xyz": [
                    8.483952783249391,
                    5.35094652,
                    5.35094652
                ],
                "label": "O",
                "properties": {}
            },
            {
                "species": [
                    {
                        "element": "O",
                        "occu": 1
                    }
                ],
                "abc": [
                    0.79275253,
                    0.20724747,
                    0.20724747
                ],
                "xyz": [
                    2.217940256750609,
                    5.35094652,
                    5.35094652
                ],
                "label": "O",
                "properties": {}
            },
            {
                "species": [
                    {
                        "element": "O",
                        "occu": 1
                    }
                ],
                "abc": [
                    0.20724747,
                    0.79275253,
                    0.20724747
                ],
                "xyz": [
                    5.35094652,
                    2.217940256750609,
                    5.35094652
                ],
                "label": "O",
                "properties": {}
            },
            {
                "species": [
                    {
                        "element": "O",
                        "occu": 1
                    }
                ],
                "abc": [
                    0.79275253,
                    0.79275253,
                    0.20724747
                ],
                "xyz": [
                    5.35094652,
                    5.35094652,
                    8.483952783249391
                ],
                "label": "O",
                "properties": {}
            },
            {
                "species": [
                    {
                        "element": "O",
                        "occu": 1
                    }
                ],
                "abc": [
                    0.20724747,
                    0.20724747,
                    0.79275253
                ],
                "xyz": [
                    5.35094652,
                    5.35094652,
                    2.217940256750609
                ],
                "label": "O",
                "properties": {}
            }
        ]
    },
    "spacegroup": {
        "source": "spglib",
        "symbol": "Fd-3m",
        "number": 227,
        "point_group": "m-3m",
        "crystal_system": "cubic",
        "hall": "F 4d 2 3 -1d"
    },
    "dielectric": {
        "epsilon_ionic": [
            [
                12.48471297,
                -0.0,
                0.0
            ],
            [
                -0.0,
                12.4838467,
                -0.0
            ],
            [
                0.0,
                -0.0,
                12.48461887
            ]
        ],
        "epsilon_ionic_avg": 12.484392846666667,
        "epsilon_ionic_eig": [
            12.48471297,
            12.4838467,
            12.48461887
        ],
        "epsilon_electronic": [
            [
                4.4843744,
                0.0,
                0.0
            ],
            [
                -0.0,
                4.4843744,
                0.0
            ],
            [
                0.0,
                -0.0,
                4.4843744
            ]
        ],
        "epsilon_electronic_avg": 4.4843744,
        "epsilon_electronic_eig": [
            4.4843744,
            4.4843744,
            4.4843744
        ]
    },
    "phonon": {
        "lowest_freq": -0.05135452545247813,
        "frequency": [
            -0.05135452545247813,
            -0.05135452545247813,
            -0.05135452545247813,
            2.17603656598446,
            2.17603656598446,
            2.17603656598446,
            3.044129676125698,
            3.044129676125698,
            3.1356602608438107,
            3.1356602608438107,
            3.1356602608438107,
            4.394985114173609,
            4.394985114173609,
            4.394985114173609,
            4.542127494594133,
            4.542127494594133,
            4.542127494594133,
            5.652769768668395,
            5.652769768668395,
            6.007721562524448,
            6.007721562524448,
            6.007721562524448,
            6.909517728291699,
            6.909517728291699,
            6.909517728291699,
            7.359017956172686,
            7.839281198293619,
            7.839281198293619,
            7.839281198293619,
            8.269248001188723,
            8.601016229474979,
            8.601016229474979,
            8.601016229474979,
            9.063790081615807,
            9.063790081615807,
            9.063790081615807,
            9.627968325285599,
            9.627968325285599,
            10.201865547629696,
            10.201865547629696,
            10.201865547629696,
            11.091282187495342,
            11.091282187495342,
            11.175929265461956,
            11.175929265461956,
            11.175929265461956,
            11.37743515857734,
            11.37743515857734,
            11.37743515857734,
            13.058643854162593,
            14.018429167602381,
            14.860745688792909,
            14.860745688792909,
            14.860745688792909,
            15.117744699430117,
            15.117744699430117,
            15.117744699430117,
            16.765848560294028,
            16.765848560294028,
            16.765848560294028,
            18.895431543960356,
            18.895431543960356,
            18.895431543960356,
            20.309813185617692,
            20.309813185617692,
            20.309813185617692
        ]
    },
    "born_effective_charge": {
        "avg_abs_trace": 3.011532424242425,
        "tensors": [
            [
                [
                    4.09171,
                    0.19895,
                    -0.19895
                ],
                [
                    0.19911,
                    4.09158,
                    -0.19911
                ],
                [
                    -0.19904,
                    -0.19904,
                    4.09173
                ]
            ],
            [
                [
                    4.09171,
                    -0.19895,
                    0.19895
                ],
                [
                    -0.19911,
                    4.09158,
                    -0.19911
                ],
                [
                    0.19904,
                    -0.19904,
                    4.09173
                ]
            ],
            [
                [
                    4.09171,
                    -0.19895,
                    -0.19895
                ],
                [
                    -0.19911,
                    4.09158,
                    0.19911
                ],
                [
                    -0.19904,
                    0.19904,
                    4.09173
                ]
            ],
            [
                [
                    4.09171,
                    0.19895,
                    0.19895
                ],
                [
                    0.19911,
                    4.09158,
                    0.19911
                ],
                [
                    0.19904,
                    0.19904,
                    4.09173
                ]
            ],
            [
                [
                    4.19009,
                    -0.24219,
                    0.24219
                ],
                [
                    -0.24233,
                    4.18996,
                    0.24233
                ],
                [
                    0.24234,
                    0.24234,
                    4.19008
                ]
            ],
            [
                [
                    4.19009,
                    0.24219,
                    -0.24219
                ],
                [
                    0.24233,
                    4.18996,
                    0.24233
                ],
                [
                    -0.24234,
                    0.24234,
                    4.19008
                ]
            ],
            [
                [
                    4.19009,
                    0.24219,
                    0.24219
                ],
                [
                    0.24233,
                    4.18996,
                    -0.24233
                ],
                [
                    0.24234,
                    -0.24234,
                    4.19008
                ]
            ],
            [
                [
                    4.19009,
                    -0.24219,
                    -0.24219
                ],
                [
                    -0.24233,
                    4.18996,
                    -0.24233
                ],
                [
                    -0.24234,
                    -0.24234,
                    4.19008
                ]
            ],
            [
                [
                    -2.78625,
                    0.0,
                    0.0
                ],
                [
                    -0.0,
                    -2.78534,
                    0.0
                ],
                [
                    -0.0,
                    -0.0,
                    -2.78585
                ]
            ],
            [
                [
                    -2.78625,
                    0.0,
                    0.0
                ],
                [
                    -0.0,
                    -2.78534,
                    0.0
                ],
                [
                    -0.0,
                    -0.0,
                    -2.78585
                ]
            ],
            [
                [
                    -2.3229,
                    -0.0,
                    -0.25378
                ],
                [
                    -0.0,
                    -2.24294,
                    -0.0
                ],
                [
                    -0.25395,
                    0.0,
                    -2.32298
                ]
            ],
            [
                [
                    -2.3229,
                    -0.0,
                    0.25378
                ],
                [
                    0.0,
                    -2.24294,
                    0.0
                ],
                [
                    0.25395,
                    0.0,
                    -2.32298
                ]
            ],
            [
                [
                    -2.3229,
                    -0.25378,
                    -0.0
                ],
                [
                    -0.25401,
                    -2.32297,
                    -1e-05
                ],
                [
                    -0.0,
                    0.0,
                    -2.24291
                ]
            ],
            [
                [
                    -2.24285,
                    0.0,
                    0.0
                ],
                [
                    -1e-05,
                    -2.32297,
                    -0.25401
                ],
                [
                    0.0,
                    -0.25395,
                    -2.32298
                ]
            ],
            [
                [
                    -2.24291,
                    -0.0,
                    -0.0
                ],
                [
                    1e-05,
                    -2.32297,
                    0.25401
                ],
                [
                    -0.0,
                    0.25395,
                    -2.32298
                ]
            ],
            [
                [
                    -2.3229,
                    0.25378,
                    0.0
                ],
                [
                    0.25401,
                    -2.32297,
                    1e-05
                ],
                [
                    -0.0,
                    -0.0,
                    -2.24291
                ]
            ],
            [
                [
                    -2.3229,
                    0.0,
                    0.25378
                ],
                [
                    -0.0,
                    -2.24291,
                    0.0
                ],
                [
                    0.25395,
                    -0.0,
                    -2.32298
                ]
            ],
            [
                [
                    -2.24285,
                    -0.0,
                    -0.0
                ],
                [
                    -1e-05,
                    -2.32297,
                    0.25401
                ],
                [
                    0.0,
                    0.25395,
                    -2.32298
                ]
            ],
            [
                [
                    -2.24291,
                    0.0,
                    0.0
                ],
                [
                    1e-05,
                    -2.32297,
                    -0.25401
                ],
                [
                    -0.0,
                    -0.25395,
                    -2.32298
                ]
            ],
            [
                [
                    -2.3229,
                    0.0,
                    -0.25378
                ],
                [
                    -0.0,
                    -2.24291,
                    0.0
                ],
                [
                    -0.25395,
                    -0.0,
                    -2.32298
                ]
            ],
            [
                [
                    -2.3229,
                    0.25378,
                    -0.0
                ],
                [
                    0.25401,
                    -2.32297,
                    -1e-05
                ],
                [
                    -0.0,
                    -0.0,
                    -2.24291
                ]
            ],
            [
                [
                    -2.3229,
                    -0.25378,
                    0.0
                ],
                [
                    -0.25401,
                    -2.32297,
                    1e-05
                ],
                [
                    -0.0,
                    0.0,
                    -2.24291
                ]
            ]
        ]
    },
    "band_gap": 2.8548999999999998,
    "is_direct": true,
    "formula": "La2Sn2O7"
}