{
    "mp_id": "mp-4530",
    "nelements": 3,
    "nsites": 14,
    "elements": [
        "Cd",
        "O",
        "Si"
    ],
    "structure": {
        "@module": "pymatgen.core.structure",
        "@class": "Structure",
        "charge": null,
        "lattice": {
            "matrix": [
                [
                    0.0,
                    4.9222006,
                    5.93946229
                ],
                [
                    3.0056543,
                    0.0,
                    5.93946229
                ],
                [
                    3.0056543,
                    4.9222006,
                    0.0
                ]
            ],
            "a": 7.713965973542559,
            "b": 6.656663583616084,
            "c": 5.767323167445088,
            "alpha": 76.38988665990496,
            "beta": 57.003611209030254,
            "gamma": 46.606502131064794,
            "volume": 175.7419585488028
        },
        "sites": [
            {
                "species": [
                    {
                        "element": "Cd",
                        "occu": 1
                    }
                ],
                "abc": [
                    0.0650297,
                    0.4349703,
                    0.0650297
                ],
                "xyz": [
                    1.5028271499999997,
                    0.64017845671564,
                    2.969731145
                ],
                "label": "Cd",
                "properties": {}
            },
            {
                "species": [
                    {
                        "element": "Cd",
                        "occu": 1
                    }
                ],
                "abc": [
                    0.4349703,
                    0.0650297,
                    0.4349703
                ],
                "xyz": [
                    1.5028271499999997,
                    4.28202214328436,
                    2.969731145
                ],
                "label": "Cd",
                "properties": {}
            },
            {
                "species": [
                    {
                        "element": "Cd",
                        "occu": 1
                    }
                ],
                "abc": [
                    0.1849703,
                    0.8150297,
                    0.1849703
                ],
                "xyz": [
                    3.0056543,
                    1.8209218432843601,
                    5.93946229
                ],
                "label": "Cd",
                "properties": {}
            },
            {
                "species": [
                    {
                        "element": "Cd",
                        "occu": 1
                    }
                ],
                "abc": [
                    0.8150297,
                    0.1849703,
                    0.8150297
                ],
                "xyz": [
                    3.0056543,
                    8.02347935671564,
                    5.93946229
                ],
                "label": "Cd",
                "properties": {}
            },
            {
                "species": [
                    {
                        "element": "Si",
                        "occu": 1
                    }
                ],
                "abc": [
                    0.75,
                    0.75,
                    0.75
                ],
                "xyz": [
                    4.50848145,
                    7.3833009,
                    8.909193434999999
                ],
                "label": "Si",
                "properties": {}
            },
            {
                "species": [
                    {
                        "element": "Si",
                        "occu": 1
                    }
                ],
                "abc": [
                    0.5,
                    0.5,
                    0.5
                ],
                "xyz": [
                    3.0056543,
                    4.9222006,
                    5.93946229
                ],
                "label": "Si",
                "properties": {}
            },
            {
                "species": [
                    {
                        "element": "O",
                        "occu": 1
                    }
                ],
                "abc": [
                    0.77317784,
                    0.87529155,
                    0.93682167
                ],
                "xyz": [
                    5.446585891779845,
                    8.416960614121706,
                    9.791021778124303
                ],
                "label": "O",
                "properties": {}
            },
            {
                "species": [
                    {
                        "element": "O",
                        "occu": 1
                    }
                ],
                "abc": [
                    0.41470794,
                    0.93682167,
                    0.87529155
                ],
                "xyz": [
                    5.446585891779845,
                    6.349636263677694,
                    8.027359152413407
                ],
                "label": "O",
                "properties": {}
            },
            {
                "species": [
                    {
                        "element": "O",
                        "occu": 1
                    }
                ],
                "abc": [
                    0.93682167,
                    0.41470794,
                    0.77317784
                ],
                "xyz": [
                    3.5703740025658535,
                    8.416960614121706,
                    8.027359152413407
                ],
                "label": "O",
                "properties": {}
            },
            {
                "species": [
                    {
                        "element": "O",
                        "occu": 1
                    }
                ],
                "abc": [
                    0.87529155,
                    0.77317784,
                    0.41470794
                ],
                "xyz": [
                    3.5703740025658535,
                    6.349636263677694,
                    9.791021778124303
                ],
                "label": "O",
                "properties": {}
            },
            {
                "species": [
                    {
                        "element": "O",
                        "occu": 1
                    }
                ],
                "abc": [
                    0.47682216,
                    0.37470845,
                    0.31317833
                ],
                "xyz": [
                    2.067549858220154,
                    3.888540885878294,
                    5.057633946875697
                ],
                "label": "O",
                "properties": {}
            },
            {
                "species": [
                    {
                        "element": "O",
                        "occu": 1
                    }
                ],
                "abc": [
                    0.83529206,
                    0.31317833,
                    0.37470845
                ],
                "xyz": [
                    2.067549858220154,
                    5.955865236322306,
                    6.821296572586593
                ],
                "label": "O",
                "properties": {}
            },
            {
                "species": [
                    {
                        "element": "O",
                        "occu": 1
                    }
                ],
                "abc": [
                    0.37470845,
                    0.47682216,
                    0.83529206
                ],
                "xyz": [
                    3.943761747434146,
                    5.955865236322306,
                    5.057633946875697
                ],
                "label": "O",
                "properties": {}
            },
            {
                "species": [
                    {
                        "element": "O",
                        "occu": 1
                    }
                ],
                "abc": [
                    0.31317833,
                    0.83529206,
                    0.47682216
                ],
                "xyz": [
                    3.943761747434146,
                    3.888540885878294,
                    6.821296572586593
                ],
                "label": "O",
                "properties": {}
            }
        ]
    },
    "spacegroup": {
        "source": "spglib",
        "symbol": "Fddd",
        "number": 70,
        "point_group": "mmm",
        "crystal_system": "orthorhombic",
        "hall": "F 2 2 -1d"
    },
    "dielectric": {
        "epsilon_ionic": [
            [
                10.56370111,
                0.0,
                1e-08
            ],
            [
                0.0,
                7.65905154,
                -0.0
            ],
            [
                1e-08,
                -0.0,
                3.44109867
            ]
        ],
        "epsilon_ionic_avg": 7.221283773333333,
        "epsilon_ionic_eig": [
            10.56370111,
            3.44109867,
            7.65905154
        ],
        "epsilon_electronic": [
            [
                4.02988543,
                0.0,
                0.0
            ],
            [
                0.0,
                3.91627474,
                0.0
            ],
            [
                0.0,
                0.0,
                4.21980022
            ]
        ],
        "epsilon_electronic_avg": 4.05532013,
        "epsilon_electronic_eig": [
            4.02988543,
            3.91627474,
            4.21980022
        ]
    },
    "phonon": {
        "lowest_freq": -0.049925135348058015,
        "frequency": [
            -0.049925135348058015,
            -0.033002453533390694,
            -0.008479733091372071,
            2.1375570751596515,
            2.32086513028208,
            2.5426993757043737,
            3.079319198547232,
            3.171121867878844,
            3.3307562018301327,
            3.8060754085886943,
            3.8891233061649984,
            4.694159678090043,
            4.756533747593006,
            4.777216249874323,
            5.21393046919902,
            5.217153287006172,
            6.374437338945709,
            6.824613069949507,
            7.115676585792966,
            8.400459890347568,
            8.61463145227554,
            9.128139935293436,
            9.470102150655809,
            9.981049970407737,
            10.353379186016733,
            10.852019722218328,
            11.572630996008078,
            13.249935160780197,
            13.643792612831575,
            13.880655945313139,
            14.48609485761594,
            14.739266040606628,
            15.050955041764913,
            15.981166654565817,
            24.03690782980174,
            24.593475763398253,
            24.91934181500414,
            25.413066908108522,
            25.466968867667873,
            26.072438133307706,
            26.279180479901843,
            27.361923809170033
        ]
    },
    "born_effective_charge": {
        "avg_abs_trace": 2.2367442857142854,
        "tensors": [
            [
                [
                    2.44454,
                    0.0,
                    0.09251
                ],
                [
                    0.0,
                    2.23078,
                    -0.0
                ],
                [
                    0.06666,
                    6e-05,
                    2.59922
                ]
            ],
            [
                [
                    2.44454,
                    -0.0,
                    -0.09251
                ],
                [
                    -0.0,
                    2.23095,
                    0.0
                ],
                [
                    -0.06666,
                    -6e-05,
                    2.59922
                ]
            ],
            [
                [
                    2.44454,
                    -0.0,
                    0.09251
                ],
                [
                    0.0,
                    2.23095,
                    0.0
                ],
                [
                    0.06666,
                    -6e-05,
                    2.59922
                ]
            ],
            [
                [
                    2.44454,
                    0.0,
                    -0.09251
                ],
                [
                    -0.0,
                    2.23078,
                    0.0
                ],
                [
                    -0.06666,
                    6e-05,
                    2.59922
                ]
            ],
            [
                [
                    2.93579,
                    -0.0,
                    0.0
                ],
                [
                    0.0,
                    3.34018,
                    0.0
                ],
                [
                    0.0,
                    0.0,
                    2.66061
                ]
            ],
            [
                [
                    2.93579,
                    -0.0,
                    0.0
                ],
                [
                    -0.0,
                    3.34018,
                    0.0
                ],
                [
                    -0.0,
                    0.0,
                    2.66061
                ]
            ],
            [
                [
                    -1.95625,
                    -0.33513,
                    -0.33294
                ],
                [
                    -0.34573,
                    -1.95038,
                    -0.00808
                ],
                [
                    -0.33839,
                    -0.16358,
                    -1.96463
                ]
            ],
            [
                [
                    -1.95625,
                    0.33513,
                    0.33294
                ],
                [
                    0.34566,
                    -1.95057,
                    -0.00801
                ],
                [
                    0.33829,
                    -0.1636,
                    -1.96489
                ]
            ],
            [
                [
                    -1.95618,
                    0.33514,
                    -0.33297
                ],
                [
                    0.34573,
                    -1.95038,
                    0.00808
                ],
                [
                    -0.33829,
                    0.1636,
                    -1.96489
                ]
            ],
            [
                [
                    -1.95618,
                    -0.33514,
                    0.33297
                ],
                [
                    -0.34566,
                    -1.95057,
                    0.00801
                ],
                [
                    0.33839,
                    0.16358,
                    -1.96463
                ]
            ],
            [
                [
                    -1.95618,
                    -0.33514,
                    -0.33297
                ],
                [
                    -0.34566,
                    -1.95057,
                    -0.00801
                ],
                [
                    -0.33829,
                    -0.1636,
                    -1.96489
                ]
            ],
            [
                [
                    -1.95618,
                    0.33514,
                    0.33297
                ],
                [
                    0.34573,
                    -1.95038,
                    -0.00808
                ],
                [
                    0.33839,
                    -0.16358,
                    -1.96463
                ]
            ],
            [
                [
                    -1.95625,
                    -0.33513,
                    0.33294
                ],
                [
                    -0.34573,
                    -1.95038,
                    0.00808
                ],
                [
                    0.33829,
                    0.1636,
                    -1.96489
                ]
            ],
            [
                [
                    -1.95625,
                    0.33513,
                    -0.33294
                ],
                [
                    0.34566,
                    -1.95057,
                    0.00801
                ],
                [
                    -0.33839,
                    0.16358,
                    -1.96463
                ]
            ]
        ]
    },
    "band_gap": 1.5166999999999997,
    "is_direct": false,
    "formula": "Cd2SiO4"
}