{
    "mp_id": "mp-4103",
    "nelements": 3,
    "nsites": 22,
    "elements": [
        "O",
        "Sb",
        "Sr"
    ],
    "structure": {
        "@module": "pymatgen.core.structure",
        "@class": "Structure",
        "charge": null,
        "lattice": {
            "matrix": [
                [
                    -3.74761805,
                    5.20297703,
                    3.85769865
                ],
                [
                    3.74761805,
                    -5.20297703,
                    3.85769865
                ],
                [
                    3.74761805,
                    5.20297703,
                    -3.85769865
                ]
            ],
            "a": 7.4831443857248425,
            "b": 7.4831443857248425,
            "c": 7.4831443857248425,
            "alpha": 119.89306673624611,
            "beta": 91.89887849175373,
            "gamma": 117.93577575589823,
            "volume": 300.8815245650808
        },
        "sites": [
            {
                "species": [
                    {
                        "element": "Sr",
                        "occu": 1
                    }
                ],
                "abc": [
                    0.5,
                    0.5,
                    0.5
                ],
                "xyz": [
                    1.873809025,
                    2.601488515,
                    1.928849325
                ],
                "label": "Sr",
                "properties": {}
            },
            {
                "species": [
                    {
                        "element": "Sr",
                        "occu": 1
                    }
                ],
                "abc": [
                    0.5,
                    0.0,
                    0.0
                ],
                "xyz": [
                    -1.873809025,
                    2.601488515,
                    1.928849325
                ],
                "label": "Sr",
                "properties": {}
            },
            {
                "species": [
                    {
                        "element": "Sr",
                        "occu": 1
                    }
                ],
                "abc": [
                    0.5,
                    0.0,
                    0.5
                ],
                "xyz": [
                    0.0,
                    5.20297703,
                    0.0
                ],
                "label": "Sr",
                "properties": {}
            },
            {
                "species": [
                    {
                        "element": "Sr",
                        "occu": 1
                    }
                ],
                "abc": [
                    0.0,
                    0.0,
                    0.0
                ],
                "xyz": [
                    0.0,
                    0.0,
                    0.0
                ],
                "label": "Sr",
                "properties": {}
            },
            {
                "species": [
                    {
                        "element": "Sb",
                        "occu": 1
                    }
                ],
                "abc": [
                    0.0,
                    0.0,
                    0.5
                ],
                "xyz": [
                    1.873809025,
                    2.601488515,
                    -1.928849325
                ],
                "label": "Sb",
                "properties": {}
            },
            {
                "species": [
                    {
                        "element": "Sb",
                        "occu": 1
                    }
                ],
                "abc": [
                    0.0,
                    0.5,
                    0.0
                ],
                "xyz": [
                    1.873809025,
                    -2.601488515,
                    1.928849325
                ],
                "label": "Sb",
                "properties": {}
            },
            {
                "species": [
                    {
                        "element": "Sb",
                        "occu": 1
                    }
                ],
                "abc": [
                    0.0,
                    0.5,
                    0.5
                ],
                "xyz": [
                    3.74761805,
                    0.0,
                    0.0
                ],
                "label": "Sb",
                "properties": {}
            },
            {
                "species": [
                    {
                        "element": "Sb",
                        "occu": 1
                    }
                ],
                "abc": [
                    0.5,
                    0.5,
                    0.0
                ],
                "xyz": [
                    0.0,
                    0.0,
                    3.85769865
                ],
                "label": "Sb",
                "properties": {}
            },
            {
                "species": [
                    {
                        "element": "O",
                        "occu": 1
                    }
                ],
                "abc": [
                    0.9485083,
                    0.77235187,
                    0.58640938
                ],
                "xyz": [
                    1.537471360485748,
                    3.9676123932933436,
                    4.3763692810744335
                ],
                "label": "O",
                "properties": {}
            },
            {
                "species": [
                    {
                        "element": "O",
                        "occu": 1
                    }
                ],
                "abc": [
                    0.0514917,
                    0.63790108,
                    0.82384257
                ],
                "xyz": [
                    5.285085662867697,
                    1.2353594337296263,
                    -0.5186667733757835
                ],
                "label": "O",
                "properties": {}
            },
            {
                "species": [
                    {
                        "element": "O",
                        "occu": 1
                    }
                ],
                "abc": [
                    0.68594149,
                    0.36209892,
                    0.91359062
                ],
                "xyz": [
                    2.210150437132302,
                    6.438336463729626,
                    0.5186667733757835
                ],
                "label": "O",
                "properties": {}
            },
            {
                "species": [
                    {
                        "element": "O",
                        "occu": 1
                    }
                ],
                "abc": [
                    0.31405851,
                    0.22764813,
                    0.67615743
                ],
                "xyz": [
                    2.210146689514252,
                    3.967622799247404,
                    -0.5186706310744333
                ],
                "label": "O",
                "properties": {}
            },
            {
                "species": [
                    {
                        "element": "O",
                        "occu": 1
                    }
                ],
                "abc": [
                    0.0514917,
                    0.22764813,
                    0.41359062
                ],
                "xyz": [
                    2.2101466895142523,
                    1.2353646367066555,
                    -0.5186706310744336
                ],
                "label": "O",
                "properties": {}
            },
            {
                "species": [
                    {
                        "element": "O",
                        "occu": 1
                    }
                ],
                "abc": [
                    0.9485083,
                    0.36209892,
                    0.17615743
                ],
                "xyz": [
                    -1.5374676128676974,
                    3.967617596270374,
                    4.376365423375783
                ],
                "label": "O",
                "properties": {}
            },
            {
                "species": [
                    {
                        "element": "O",
                        "occu": 1
                    }
                ],
                "abc": [
                    0.31405851,
                    0.63790108,
                    0.08640938
                ],
                "xyz": [
                    1.5374676128676976,
                    -1.2353594337296254,
                    3.339031876624217
                ],
                "label": "O",
                "properties": {}
            },
            {
                "species": [
                    {
                        "element": "O",
                        "occu": 1
                    }
                ],
                "abc": [
                    0.68594149,
                    0.77235187,
                    0.32384257
                ],
                "xyz": [
                    1.5374713604857475,
                    1.235354230752596,
                    4.3763692810744335
                ],
                "label": "O",
                "properties": {}
            },
            {
                "species": [
                    {
                        "element": "O",
                        "occu": 1
                    }
                ],
                "abc": [
                    0.09876026,
                    0.84876026,
                    0.25
                ],
                "xyz": [
                    3.74761805,
                    -2.6014885150000007,
                    2.6908239683512982
                ],
                "label": "O",
                "properties": {}
            },
            {
                "species": [
                    {
                        "element": "O",
                        "occu": 1
                    }
                ],
                "abc": [
                    0.90123974,
                    0.15123974,
                    0.75
                ],
                "xyz": [
                    0.0,
                    7.8044655449999984,
                    1.1668746816487023
                ],
                "label": "O",
                "properties": {}
            },
            {
                "species": [
                    {
                        "element": "O",
                        "occu": 1
                    }
                ],
                "abc": [
                    0.68841756,
                    0.28049286,
                    0.4079247
                ],
                "xyz": [
                    0.0,
                    4.244845688139281,
                    2.1641138547132783
                ],
                "label": "O",
                "properties": {}
            },
            {
                "species": [
                    {
                        "element": "O",
                        "occu": 1
                    }
                ],
                "abc": [
                    0.31158244,
                    0.71950714,
                    0.5920753
                ],
                "xyz": [
                    3.7476180500000003,
                    0.9581313418607174,
                    1.6935847952867227
                ],
                "label": "O",
                "properties": {}
            },
            {
                "species": [
                    {
                        "element": "O",
                        "occu": 1
                    }
                ],
                "abc": [
                    0.37256916,
                    0.28049286,
                    0.0920753
                ],
                "xyz": [
                    -3.7476180498874356e-06,
                    0.9581365448377479,
                    2.1641177124119286
                ],
                "label": "O",
                "properties": {}
            },
            {
                "species": [
                    {
                        "element": "O",
                        "occu": 1
                    }
                ],
                "abc": [
                    0.62743084,
                    0.71950714,
                    0.9079247
                ],
                "xyz": [
                    3.74762179761805,
                    4.244840485162252,
                    1.6935809375880724
                ],
                "label": "O",
                "properties": {}
            }
        ]
    },
    "spacegroup": {
        "source": "spglib",
        "symbol": "Imma",
        "number": 74,
        "point_group": "mmm",
        "crystal_system": "orthorhombic",
        "hall": "-I 2b 2"
    },
    "dielectric": {
        "epsilon_ionic": [
            [
                7.78440797,
                0.0,
                -0.0
            ],
            [
                0.0,
                11.17220131,
                -0.0
            ],
            [
                -0.0,
                -0.0,
                12.21340055
            ]
        ],
        "epsilon_ionic_avg": 10.390003276666667,
        "epsilon_ionic_eig": [
            7.78440797,
            11.17220131,
            12.21340055
        ],
        "epsilon_electronic": [
            [
                4.10521436,
                0.0,
                0.0
            ],
            [
                0.0,
                4.06466983,
                -0.0
            ],
            [
                0.0,
                -0.0,
                4.02172101
            ]
        ],
        "epsilon_electronic_avg": 4.0638684,
        "epsilon_electronic_eig": [
            4.10521436,
            4.06466983,
            4.02172101
        ]
    },
    "phonon": {
        "lowest_freq": -0.039111233223761394,
        "frequency": [
            -0.039111233223761394,
            -0.02330683586649698,
            -0.012843249428386593,
            1.7280882247271443,
            1.8550319898571144,
            2.442699135211501,
            2.9641590599381358,
            3.260415122606082,
            3.318157588467605,
            3.3408335685309307,
            3.4532596088514738,
            3.9066381148577327,
            3.9971914876433026,
            4.277860995181328,
            4.698924758711818,
            4.855041654858389,
            4.864619720417114,
            4.914708634000027,
            5.51519625795693,
            5.70284178543717,
            5.947587067359941,
            6.383277472834099,
            6.438151463201509,
            6.578240364357547,
            6.616274645835327,
            6.665875351803936,
            7.995399036448945,
            8.242905384126525,
            8.346222478206098,
            8.414679310937062,
            8.5748610309042,
            8.853783403618571,
            9.522794644641598,
            9.524625199385234,
            9.581576863183479,
            9.9481645323825,
            10.035608478085846,
            10.057831241094949,
            10.54929736401417,
            10.860666904439054,
            11.090540045597383,
            11.163771705913797,
            11.324412300368953,
            11.894963123802,
            12.231135767701662,
            12.272586475903497,
            12.73572542802267,
            12.749277986494407,
            13.121069754478071,
            13.390004897632448,
            13.391878177791167,
            13.449271778397147,
            16.76096169635292,
            17.083569786374017,
            17.579128626381145,
            18.348165869869455,
            18.85687714288358,
            19.09866945461957,
            19.23782591390012,
            19.53643968177776,
            20.041420988817446,
            20.35347018690676,
            21.466222575966032,
            22.133142620171988,
            22.546980047443427,
            22.724300204065873
        ]
    },
    "born_effective_charge": {
        "avg_abs_trace": 2.7176868181818183,
        "tensors": [
            [
                [
                    2.51476,
                    -0.0,
                    -0.37809
                ],
                [
                    0.0,
                    2.66413,
                    -0.0
                ],
                [
                    -0.58409,
                    -0.0,
                    2.56823
                ]
            ],
            [
                [
                    2.51476,
                    -0.0,
                    0.37809
                ],
                [
                    0.0,
                    2.66413,
                    -0.0
                ],
                [
                    0.58409,
                    -0.0,
                    2.56823
                ]
            ],
            [
                [
                    2.66217,
                    -0.0,
                    -0.0
                ],
                [
                    0.0,
                    2.21156,
                    0.1235
                ],
                [
                    0.0,
                    0.03188,
                    2.87382
                ]
            ],
            [
                [
                    2.66217,
                    -0.0,
                    -0.0
                ],
                [
                    0.0,
                    2.21156,
                    -0.1235
                ],
                [
                    0.0,
                    -0.03188,
                    2.87382
                ]
            ],
            [
                [
                    5.21991,
                    -0.0,
                    0.33427
                ],
                [
                    0.0,
                    4.8984,
                    -0.0
                ],
                [
                    0.08088,
                    -0.0,
                    4.68968
                ]
            ],
            [
                [
                    5.21991,
                    -0.0,
                    -0.33427
                ],
                [
                    0.0,
                    4.8984,
                    -0.0
                ],
                [
                    -0.08088,
                    -0.0,
                    4.68968
                ]
            ],
            [
                [
                    5.01479,
                    -0.0,
                    -0.0
                ],
                [
                    0.0,
                    5.15825,
                    -0.19997
                ],
                [
                    0.0,
                    -0.72736,
                    4.36611
                ]
            ],
            [
                [
                    5.01479,
                    -0.0,
                    -0.0
                ],
                [
                    0.0,
                    5.15825,
                    0.19997
                ],
                [
                    0.0,
                    0.72736,
                    4.36611
                ]
            ],
            [
                [
                    -2.12973,
                    0.5316,
                    -0.26205
                ],
                [
                    0.56209,
                    -2.31706,
                    0.63637
                ],
                [
                    -0.26515,
                    0.64269,
                    -1.95771
                ]
            ],
            [
                [
                    -2.12973,
                    -0.5316,
                    0.26205
                ],
                [
                    -0.56204,
                    -2.31714,
                    0.63636
                ],
                [
                    0.2651,
                    0.64273,
                    -1.9577
                ]
            ],
            [
                [
                    -2.12981,
                    0.53153,
                    0.26207
                ],
                [
                    0.56204,
                    -2.31714,
                    -0.63636
                ],
                [
                    0.26515,
                    -0.64269,
                    -1.95771
                ]
            ],
            [
                [
                    -2.12981,
                    -0.53153,
                    -0.26207
                ],
                [
                    -0.56209,
                    -2.31706,
                    -0.63637
                ],
                [
                    -0.2651,
                    -0.64273,
                    -1.9577
                ]
            ],
            [
                [
                    -2.12981,
                    0.53153,
                    -0.26207
                ],
                [
                    0.56204,
                    -2.31714,
                    0.63636
                ],
                [
                    -0.2651,
                    0.64273,
                    -1.9577
                ]
            ],
            [
                [
                    -2.12981,
                    -0.53153,
                    0.26207
                ],
                [
                    -0.56209,
                    -2.31706,
                    0.63637
                ],
                [
                    0.26515,
                    0.64269,
                    -1.95771
                ]
            ],
            [
                [
                    -2.12973,
                    0.5316,
                    0.26205
                ],
                [
                    0.56209,
                    -2.31706,
                    -0.63637
                ],
                [
                    0.2651,
                    -0.64273,
                    -1.9577
                ]
            ],
            [
                [
                    -2.12973,
                    -0.5316,
                    -0.26205
                ],
                [
                    -0.56204,
                    -2.31714,
                    -0.63636
                ],
                [
                    -0.26515,
                    -0.64269,
                    -1.95771
                ]
            ],
            [
                [
                    -3.27014,
                    0.0,
                    -5e-05
                ],
                [
                    -0.0,
                    -1.62167,
                    -5e-05
                ],
                [
                    0.0,
                    0.0,
                    -1.63553
                ]
            ],
            [
                [
                    -3.27014,
                    -0.0,
                    5e-05
                ],
                [
                    0.0,
                    -1.62167,
                    5e-05
                ],
                [
                    0.0,
                    0.0,
                    -1.63556
                ]
            ],
            [
                [
                    -1.81121,
                    -2e-05,
                    0.0
                ],
                [
                    0.0,
                    -2.02117,
                    -0.25846
                ],
                [
                    -0.0,
                    -0.23666,
                    -2.51579
                ]
            ],
            [
                [
                    -1.81121,
                    2e-05,
                    -0.0
                ],
                [
                    -0.0,
                    -2.02111,
                    -0.25845
                ],
                [
                    -0.0,
                    -0.23673,
                    -2.51571
                ]
            ],
            [
                [
                    -1.81121,
                    2e-05,
                    0.0
                ],
                [
                    -0.0,
                    -2.02111,
                    0.25845
                ],
                [
                    -0.0,
                    0.23666,
                    -2.51579
                ]
            ],
            [
                [
                    -1.81121,
                    -2e-05,
                    -0.0
                ],
                [
                    0.0,
                    -2.02117,
                    0.25846
                ],
                [
                    -0.0,
                    0.23673,
                    -2.51571
                ]
            ]
        ]
    },
    "band_gap": 1.5039000000000002,
    "is_direct": false,
    "formula": "Sr2Sb2O7"
}