{
    "mp_id": "mp-4035",
    "nelements": 3,
    "nsites": 12,
    "elements": [
        "O",
        "Rb",
        "Re"
    ],
    "structure": {
        "@module": "pymatgen.core.structure",
        "@class": "Structure",
        "charge": null,
        "lattice": {
            "matrix": [
                [
                    -2.94456423,
                    2.94456421,
                    6.48081711
                ],
                [
                    2.94456423,
                    -2.94456421,
                    6.48081711
                ],
                [
                    2.94456421,
                    2.94456423,
                    -6.48081711
                ]
            ],
            "a": 7.7033698667970745,
            "b": 7.7033698667970745,
            "c": 7.7033698667970745,
            "alpha": 135.05454207831713,
            "beta": 135.05454207831713,
            "gamma": 65.4454652216757,
            "volume": 224.76662178585536
        },
        "sites": [
            {
                "species": [
                    {
                        "element": "Rb",
                        "occu": 1
                    }
                ],
                "abc": [
                    0.75,
                    0.25,
                    0.5
                ],
                "xyz": [
                    -9.99999993922529e-09,
                    2.94456422,
                    3.240408555
                ],
                "label": "Rb",
                "properties": {}
            },
            {
                "species": [
                    {
                        "element": "Rb",
                        "occu": 1
                    }
                ],
                "abc": [
                    0.0,
                    0.0,
                    0.0
                ],
                "xyz": [
                    0.0,
                    0.0,
                    0.0
                ],
                "label": "Rb",
                "properties": {}
            },
            {
                "species": [
                    {
                        "element": "Re",
                        "occu": 1
                    }
                ],
                "abc": [
                    0.25,
                    0.75,
                    0.5
                ],
                "xyz": [
                    2.9445642199999997,
                    9.99999993922529e-09,
                    3.240408555
                ],
                "label": "Re",
                "properties": {}
            },
            {
                "species": [
                    {
                        "element": "Re",
                        "occu": 1
                    }
                ],
                "abc": [
                    0.5,
                    0.5,
                    0.0
                ],
                "xyz": [
                    0.0,
                    0.0,
                    6.48081711
                ],
                "label": "Re",
                "properties": {}
            },
            {
                "species": [
                    {
                        "element": "O",
                        "occu": 1
                    }
                ],
                "abc": [
                    0.2108546,
                    0.54311358,
                    0.90804304
                ],
                "xyz": [
                    3.652148944327884,
                    1.6954331539253538,
                    -0.9985309889088541
                ],
                "label": "O",
                "properties": {}
            },
            {
                "species": [
                    {
                        "element": "O",
                        "occu": 1
                    }
                ],
                "abc": [
                    0.29311358,
                    0.88507053,
                    0.83225898
                ],
                "xyz": [
                    4.193695266629005,
                    0.7075847737735259,
                    2.241877501282975
                ],
                "label": "O",
                "properties": {}
            },
            {
                "species": [
                    {
                        "element": "O",
                        "occu": 1
                    }
                ],
                "abc": [
                    0.05281155,
                    0.4608546,
                    0.16774102
                ],
                "xyz": [
                    1.6954331733709957,
                    -0.7075847537735258,
                    2.241877501282974
                ],
                "label": "O",
                "properties": {}
            },
            {
                "species": [
                    {
                        "element": "O",
                        "occu": 1
                    }
                ],
                "abc": [
                    0.63507053,
                    0.30281155,
                    0.09195696
                ],
                "xyz": [
                    -0.7075847343278839,
                    1.2491310760746466,
                    5.482285991474803
                ],
                "label": "O",
                "properties": {}
            },
            {
                "species": [
                    {
                        "element": "O",
                        "occu": 1
                    }
                ],
                "abc": [
                    0.11492947,
                    0.94718845,
                    0.40804304
                ],
                "xyz": [
                    3.6521489543278833,
                    -1.2491310660746462,
                    4.238939673525197
                ],
                "label": "O",
                "properties": {}
            },
            {
                "species": [
                    {
                        "element": "O",
                        "occu": 1
                    }
                ],
                "abc": [
                    0.69718845,
                    0.7891454,
                    0.33225898
                ],
                "xyz": [
                    1.2491310466290042,
                    0.707584763773526,
                    7.479348163717025
                ],
                "label": "O",
                "properties": {}
            },
            {
                "species": [
                    {
                        "element": "O",
                        "occu": 1
                    }
                ],
                "abc": [
                    0.45688642,
                    0.36492947,
                    0.66774102
                ],
                "xyz": [
                    1.6954331633709956,
                    2.236979466226474,
                    0.9985310537170253
                ],
                "label": "O",
                "properties": {}
            },
            {
                "species": [
                    {
                        "element": "O",
                        "occu": 1
                    }
                ],
                "abc": [
                    0.5391454,
                    0.70688642,
                    0.59195696
                ],
                "xyz": [
                    2.2369794856721166,
                    1.2491310860746465,
                    4.238939543908856
                ],
                "label": "O",
                "properties": {}
            }
        ]
    },
    "spacegroup": {
        "source": "spglib",
        "symbol": "I4_1/a",
        "number": 88,
        "point_group": "4/m",
        "crystal_system": "tetragonal",
        "hall": "I 4bw -1bw"
    },
    "dielectric": {
        "epsilon_ionic": [
            [
                2.78161538,
                -0.00048839,
                -0.0
            ],
            [
                -0.00048839,
                2.78521214,
                1e-08
            ],
            [
                -0.0,
                1e-08,
                2.00238707
            ]
        ],
        "epsilon_ionic_avg": 2.5230715299999997,
        "epsilon_ionic_eig": [
            2.781550243051727,
            2.785277276948274,
            2.0023870699999997
        ],
        "epsilon_electronic": [
            [
                2.67254216,
                2.38e-06,
                0.0
            ],
            [
                -2.38e-06,
                2.67254216,
                -0.0
            ],
            [
                0.0,
                0.0,
                2.7790989
            ]
        ],
        "epsilon_electronic_avg": 2.708061073333333,
        "epsilon_electronic_eig": [
            2.67254216,
            2.67254216,
            2.7790989
        ]
    },
    "phonon": {
        "lowest_freq": -0.19416317205474642,
        "frequency": [
            -0.19416317205474642,
            -0.19416317205474642,
            -0.017136209429116683,
            1.320284544401865,
            1.9781017856792185,
            1.9781017856792185,
            2.243448924301281,
            2.243448924301281,
            2.387920119482364,
            2.387920119482364,
            2.6352982895984143,
            2.877852376436883,
            2.883044718371278,
            2.883044718371278,
            3.3904553439733593,
            3.9606506366607572,
            3.964550947674042,
            3.964550947674042,
            8.629638482421708,
            9.009782243245578,
            9.009782243245578,
            9.459435147537878,
            9.794066906072796,
            9.882371626738287,
            9.882371626738287,
            10.061639610339276,
            10.296528656754312,
            10.351238623933478,
            27.00128726413393,
            27.0494103627969,
            27.0494103627969,
            27.29604380943333,
            27.29604380943333,
            27.65853708645126,
            28.816291015431318,
            28.86745278594911
        ]
    },
    "born_effective_charge": {
        "avg_abs_trace": 1.515504444444444,
        "tensors": [
            [
                [
                    1.43438,
                    -0.05998,
                    -1e-05
                ],
                [
                    0.05988,
                    1.43543,
                    0.0
                ],
                [
                    0.0,
                    0.0,
                    1.34647
                ]
            ],
            [
                [
                    1.43438,
                    -0.05998,
                    1e-05
                ],
                [
                    0.05988,
                    1.43543,
                    -0.0
                ],
                [
                    0.0,
                    0.0,
                    1.34647
                ]
            ],
            [
                [
                    2.98266,
                    0.12373,
                    -0.00042
                ],
                [
                    -0.12328,
                    2.98353,
                    -0.00292
                ],
                [
                    0.0,
                    0.0,
                    3.45706
                ]
            ],
            [
                [
                    2.98266,
                    0.12373,
                    0.00042
                ],
                [
                    -0.12328,
                    2.98353,
                    0.00292
                ],
                [
                    0.0,
                    0.0,
                    3.45706
                ]
            ],
            [
                [
                    -0.86151,
                    0.48885,
                    0.44817
                ],
                [
                    0.52152,
                    -1.34844,
                    -0.63804
                ],
                [
                    0.40919,
                    -0.71056,
                    -1.20092
                ]
            ],
            [
                [
                    -1.34706,
                    -0.52096,
                    0.63716
                ],
                [
                    -0.49043,
                    -0.86314,
                    0.44979
                ],
                [
                    0.71056,
                    0.40919,
                    -1.20092
                ]
            ],
            [
                [
                    -1.34682,
                    -0.52075,
                    -0.63694
                ],
                [
                    -0.4876,
                    -0.86159,
                    -0.44745
                ],
                [
                    -0.71056,
                    -0.40919,
                    -1.20092
                ]
            ],
            [
                [
                    -0.86166,
                    0.4891,
                    -0.44894
                ],
                [
                    0.51991,
                    -1.34579,
                    0.63599
                ],
                [
                    -0.40919,
                    0.71056,
                    -1.20092
                ]
            ],
            [
                [
                    -0.86151,
                    0.48885,
                    -0.44817
                ],
                [
                    0.52152,
                    -1.34844,
                    0.63804
                ],
                [
                    -0.40914,
                    0.7106,
                    -1.20085
                ]
            ],
            [
                [
                    -1.34706,
                    -0.52096,
                    -0.63716
                ],
                [
                    -0.49043,
                    -0.86314,
                    -0.44979
                ],
                [
                    -0.7106,
                    -0.40914,
                    -1.20085
                ]
            ],
            [
                [
                    -1.34682,
                    -0.52075,
                    0.63694
                ],
                [
                    -0.4876,
                    -0.86159,
                    0.44745
                ],
                [
                    0.7106,
                    0.40914,
                    -1.20085
                ]
            ],
            [
                [
                    -0.86166,
                    0.4891,
                    0.44894
                ],
                [
                    0.51991,
                    -1.34579,
                    -0.63599
                ],
                [
                    0.40914,
                    -0.7106,
                    -1.20085
                ]
            ]
        ]
    },
    "band_gap": 4.2396,
    "is_direct": true,
    "formula": "RbReO4"
}