{
    "mp_id": "mp-4571",
    "nelements": 3,
    "nsites": 20,
    "elements": [
        "Ca",
        "O",
        "Zr"
    ],
    "structure": {
        "@module": "pymatgen.core.structure",
        "@class": "Structure",
        "charge": null,
        "lattice": {
            "matrix": [
                [
                    5.7808241,
                    0.0,
                    0.0
                ],
                [
                    0.0,
                    8.02413401,
                    0.0
                ],
                [
                    0.0,
                    0.0,
                    5.5807426
                ]
            ],
            "a": 5.7808241,
            "b": 8.02413401,
            "c": 5.5807426,
            "alpha": 90.0,
            "beta": 90.0,
            "gamma": 90.0,
            "volume": 258.86892487109424
        },
        "sites": [
            {
                "species": [
                    {
                        "element": "Ca",
                        "occu": 1
                    }
                ],
                "abc": [
                    0.55153253,
                    0.25,
                    0.48593549
                ],
                "xyz": [
                    3.1883125413579734,
                    2.0060335025,
                    2.711880889894874
                ],
                "label": "Ca",
                "properties": {}
            },
            {
                "species": [
                    {
                        "element": "Ca",
                        "occu": 1
                    }
                ],
                "abc": [
                    0.05153253,
                    0.25,
                    0.01406451
                ],
                "xyz": [
                    0.29790049135797303,
                    2.0060335025,
                    0.078490410105126
                ],
                "label": "Ca",
                "properties": {}
            },
            {
                "species": [
                    {
                        "element": "Ca",
                        "occu": 1
                    }
                ],
                "abc": [
                    0.44846747,
                    0.75,
                    0.51406451
                ],
                "xyz": [
                    2.592511558642027,
                    6.0181005075,
                    2.8688617101051257
                ],
                "label": "Ca",
                "properties": {}
            },
            {
                "species": [
                    {
                        "element": "Ca",
                        "occu": 1
                    }
                ],
                "abc": [
                    0.94846747,
                    0.75,
                    0.98593549
                ],
                "xyz": [
                    5.482923608642027,
                    6.0181005075,
                    5.5022521898948735
                ],
                "label": "Ca",
                "properties": {}
            },
            {
                "species": [
                    {
                        "element": "Zr",
                        "occu": 1
                    }
                ],
                "abc": [
                    0.5,
                    0.0,
                    0.0
                ],
                "xyz": [
                    2.89041205,
                    0.0,
                    0.0
                ],
                "label": "Zr",
                "properties": {}
            },
            {
                "species": [
                    {
                        "element": "Zr",
                        "occu": 1
                    }
                ],
                "abc": [
                    0.0,
                    0.5,
                    0.5
                ],
                "xyz": [
                    0.0,
                    4.012067005,
                    2.7903713
                ],
                "label": "Zr",
                "properties": {}
            },
            {
                "species": [
                    {
                        "element": "Zr",
                        "occu": 1
                    }
                ],
                "abc": [
                    0.5,
                    0.5,
                    0.0
                ],
                "xyz": [
                    2.89041205,
                    4.012067005,
                    0.0
                ],
                "label": "Zr",
                "properties": {}
            },
            {
                "species": [
                    {
                        "element": "Zr",
                        "occu": 1
                    }
                ],
                "abc": [
                    0.0,
                    0.0,
                    0.5
                ],
                "xyz": [
                    0.0,
                    0.0,
                    2.7903713
                ],
                "label": "Zr",
                "properties": {}
            },
            {
                "species": [
                    {
                        "element": "O",
                        "occu": 1
                    }
                ],
                "abc": [
                    0.95461024,
                    0.25,
                    0.61231894
                ],
                "xyz": [
                    5.518433881498784,
                    2.0060335025,
                    3.4171943932448436
                ],
                "label": "O",
                "properties": {}
            },
            {
                "species": [
                    {
                        "element": "O",
                        "occu": 1
                    }
                ],
                "abc": [
                    0.45461024,
                    0.25,
                    0.88768106
                ],
                "xyz": [
                    2.628021831498784,
                    2.0060335025,
                    4.953919506755156
                ],
                "label": "O",
                "properties": {}
            },
            {
                "species": [
                    {
                        "element": "O",
                        "occu": 1
                    }
                ],
                "abc": [
                    0.04538976,
                    0.75,
                    0.38768106
                ],
                "xyz": [
                    0.262390218501216,
                    6.0181005075,
                    2.163548206755156
                ],
                "label": "O",
                "properties": {}
            },
            {
                "species": [
                    {
                        "element": "O",
                        "occu": 1
                    }
                ],
                "abc": [
                    0.54538976,
                    0.75,
                    0.11231894
                ],
                "xyz": [
                    3.152802268501216,
                    6.0181005075,
                    0.626823093244844
                ],
                "label": "O",
                "properties": {}
            },
            {
                "species": [
                    {
                        "element": "O",
                        "occu": 1
                    }
                ],
                "abc": [
                    0.80130579,
                    0.0598285,
                    0.19576683
                ],
                "xyz": [
                    4.632207822301539,
                    0.48007190161728497,
                    1.092524287847958
                ],
                "label": "O",
                "properties": {}
            },
            {
                "species": [
                    {
                        "element": "O",
                        "occu": 1
                    }
                ],
                "abc": [
                    0.30130579,
                    0.4401715,
                    0.30423317
                ],
                "xyz": [
                    1.7417957723015391,
                    3.5319951033827146,
                    1.697847012152042
                ],
                "label": "O",
                "properties": {}
            },
            {
                "species": [
                    {
                        "element": "O",
                        "occu": 1
                    }
                ],
                "abc": [
                    0.19869421,
                    0.5598285,
                    0.80423317
                ],
                "xyz": [
                    1.1486162776984612,
                    4.492138906617284,
                    4.488218312152042
                ],
                "label": "O",
                "properties": {}
            },
            {
                "species": [
                    {
                        "element": "O",
                        "occu": 1
                    }
                ],
                "abc": [
                    0.69869421,
                    0.9401715,
                    0.69576683
                ],
                "xyz": [
                    4.039028327698461,
                    7.544062108382715,
                    3.8828955878479574
                ],
                "label": "O",
                "properties": {}
            },
            {
                "species": [
                    {
                        "element": "O",
                        "occu": 1
                    }
                ],
                "abc": [
                    0.19869421,
                    0.9401715,
                    0.80423317
                ],
                "xyz": [
                    1.1486162776984612,
                    7.544062108382715,
                    4.488218312152042
                ],
                "label": "O",
                "properties": {}
            },
            {
                "species": [
                    {
                        "element": "O",
                        "occu": 1
                    }
                ],
                "abc": [
                    0.69869421,
                    0.5598285,
                    0.69576683
                ],
                "xyz": [
                    4.039028327698461,
                    4.492138906617284,
                    3.8828955878479574
                ],
                "label": "O",
                "properties": {}
            },
            {
                "species": [
                    {
                        "element": "O",
                        "occu": 1
                    }
                ],
                "abc": [
                    0.80130579,
                    0.4401715,
                    0.19576683
                ],
                "xyz": [
                    4.632207822301539,
                    3.5319951033827146,
                    1.092524287847958
                ],
                "label": "O",
                "properties": {}
            },
            {
                "species": [
                    {
                        "element": "O",
                        "occu": 1
                    }
                ],
                "abc": [
                    0.30130579,
                    0.0598285,
                    0.30423317
                ],
                "xyz": [
                    1.7417957723015391,
                    0.48007190161728497,
                    1.697847012152042
                ],
                "label": "O",
                "properties": {}
            }
        ]
    },
    "spacegroup": {
        "source": "spglib",
        "symbol": "Pnma",
        "number": 62,
        "point_group": "mmm",
        "crystal_system": "orthorhombic",
        "hall": "-P 2ac 2n"
    },
    "dielectric": {
        "epsilon_ionic": [
            [
                16.81545644,
                -2e-08,
                3e-08
            ],
            [
                -2e-08,
                32.44384302,
                -4e-08
            ],
            [
                3e-08,
                -4e-08,
                18.10142082
            ]
        ],
        "epsilon_ionic_avg": 22.45357342666667,
        "epsilon_ionic_eig": [
            16.81545644,
            18.10142082,
            32.44384302000001
        ],
        "epsilon_electronic": [
            [
                4.44295711,
                0.0,
                -0.0
            ],
            [
                0.0,
                4.35007811,
                0.0
            ],
            [
                0.0,
                0.0,
                4.42448624
            ]
        ],
        "epsilon_electronic_avg": 4.4058404866666665,
        "epsilon_electronic_eig": [
            4.44295711,
            4.35007811,
            4.42448624
        ]
    },
    "phonon": {
        "lowest_freq": -0.14494845245404117,
        "frequency": [
            -0.14494845245404117,
            -0.10082713038276142,
            -0.07116880937378368,
            2.8613030561842874,
            3.1982547181284535,
            3.745526615949769,
            4.1114003126176435,
            4.134875156887783,
            4.549436785106725,
            4.697475709249933,
            4.796548214262798,
            5.140912016467626,
            5.252520279183445,
            5.337369663084556,
            5.5321332327771495,
            5.666840963995943,
            5.73422190801162,
            6.066377779437944,
            6.284895843035128,
            6.691344145978558,
            6.71745330572379,
            7.022452373384612,
            7.121246679693479,
            7.257135271283625,
            7.28494047327366,
            7.813598001570123,
            7.97056190034363,
            8.154973612998436,
            8.39858645699469,
            8.482511766349369,
            8.597118903658897,
            8.69704804258106,
            9.059396156829438,
            9.53098342709274,
            10.197722234737673,
            10.649831075807624,
            10.72170589499841,
            10.75890107619188,
            10.77441439496903,
            10.874201030483114,
            11.661934611818731,
            12.179573082530853,
            12.197508715545933,
            12.33667832784329,
            12.488052696613858,
            12.562252599072918,
            13.737542102236597,
            14.658043896557833,
            14.664128758864615,
            14.981789721305878,
            15.483222135059219,
            15.48813536456261,
            15.780439264123778,
            16.157088030993453,
            16.2892176504158,
            16.626482876550238,
            16.816144621255347,
            20.697735378366474,
            22.046280085249872,
            22.49371770574605
        ]
    },
    "born_effective_charge": {
        "avg_abs_trace": 3.1385083333333332,
        "tensors": [
            [
                [
                    2.42219,
                    -0.0,
                    0.18786
                ],
                [
                    0.0,
                    2.33144,
                    -4e-05
                ],
                [
                    0.12589,
                    -0.0,
                    2.47093
                ]
            ],
            [
                [
                    2.42219,
                    -0.0,
                    -0.18786
                ],
                [
                    0.0,
                    2.33144,
                    4e-05
                ],
                [
                    -0.12607,
                    -0.0,
                    2.47103
                ]
            ],
            [
                [
                    2.42225,
                    -0.0,
                    0.18762
                ],
                [
                    -0.0,
                    2.33144,
                    4e-05
                ],
                [
                    0.12607,
                    -0.0,
                    2.47103
                ]
            ],
            [
                [
                    2.42225,
                    -0.0,
                    -0.18762
                ],
                [
                    -0.0,
                    2.33144,
                    -4e-05
                ],
                [
                    -0.12589,
                    -0.0,
                    2.47093
                ]
            ],
            [
                [
                    5.51835,
                    -0.08883,
                    -0.22095
                ],
                [
                    -0.2724,
                    5.3733,
                    -0.36868
                ],
                [
                    0.38692,
                    0.58072,
                    5.42252
                ]
            ],
            [
                [
                    5.51835,
                    0.08883,
                    0.22095
                ],
                [
                    0.2724,
                    5.3733,
                    -0.36868
                ],
                [
                    -0.38692,
                    0.58072,
                    5.42252
                ]
            ],
            [
                [
                    5.51835,
                    0.08883,
                    -0.22095
                ],
                [
                    0.2724,
                    5.3733,
                    0.36868
                ],
                [
                    0.38692,
                    -0.58072,
                    5.42252
                ]
            ],
            [
                [
                    5.51835,
                    -0.08883,
                    0.22095
                ],
                [
                    -0.2724,
                    5.3733,
                    0.36868
                ],
                [
                    -0.38692,
                    -0.58072,
                    5.42252
                ]
            ],
            [
                [
                    -1.77218,
                    -0.0,
                    -0.15
                ],
                [
                    -4e-05,
                    -3.99952,
                    -1e-05
                ],
                [
                    -0.05034,
                    -0.0,
                    -2.06531
                ]
            ],
            [
                [
                    -1.77218,
                    -0.0,
                    0.15
                ],
                [
                    -4e-05,
                    -3.99952,
                    1e-05
                ],
                [
                    0.05061,
                    -0.0,
                    -2.06523
                ]
            ],
            [
                [
                    -1.77227,
                    -0.0,
                    -0.14994
                ],
                [
                    4e-05,
                    -3.99952,
                    1e-05
                ],
                [
                    -0.05061,
                    -0.0,
                    -2.06523
                ]
            ],
            [
                [
                    -1.77227,
                    -0.0,
                    0.14994
                ],
                [
                    4e-05,
                    -3.99952,
                    -1e-05
                ],
                [
                    0.05034,
                    -0.0,
                    -2.06531
                ]
            ],
            [
                [
                    -3.08423,
                    -0.1398,
                    -1.11324
                ],
                [
                    -0.1356,
                    -1.8525,
                    0.03958
                ],
                [
                    -1.07354,
                    0.03375,
                    -2.91416
                ]
            ],
            [
                [
                    -3.08423,
                    0.1398,
                    1.11324
                ],
                [
                    0.13573,
                    -1.85272,
                    0.03952
                ],
                [
                    1.07351,
                    0.0342,
                    -2.91407
                ]
            ],
            [
                [
                    -3.08412,
                    0.13951,
                    -1.1135
                ],
                [
                    0.1356,
                    -1.8525,
                    -0.03958
                ],
                [
                    -1.07351,
                    -0.0342,
                    -2.91407
                ]
            ],
            [
                [
                    -3.08412,
                    -0.13951,
                    1.1135
                ],
                [
                    -0.13573,
                    -1.85272,
                    -0.03952
                ],
                [
                    1.07354,
                    -0.03375,
                    -2.91416
                ]
            ],
            [
                [
                    -3.08412,
                    -0.13951,
                    -1.1135
                ],
                [
                    -0.13573,
                    -1.85272,
                    0.03952
                ],
                [
                    -1.07351,
                    0.0342,
                    -2.91407
                ]
            ],
            [
                [
                    -3.08412,
                    0.13951,
                    1.1135
                ],
                [
                    0.1356,
                    -1.8525,
                    0.03958
                ],
                [
                    1.07354,
                    0.03375,
                    -2.91416
                ]
            ],
            [
                [
                    -3.08423,
                    0.1398,
                    -1.11324
                ],
                [
                    0.13573,
                    -1.85272,
                    -0.03952
                ],
                [
                    -1.07354,
                    -0.03375,
                    -2.91416
                ]
            ],
            [
                [
                    -3.08423,
                    -0.1398,
                    1.11324
                ],
                [
                    -0.1356,
                    -1.8525,
                    -0.03958
                ],
                [
                    1.07351,
                    -0.0342,
                    -2.91407
                ]
            ]
        ]
    },
    "band_gap": 4.4739,
    "is_direct": true,
    "formula": "CaZrO3"
}