{
    "mp_id": "mp-4598",
    "nelements": 3,
    "nsites": 22,
    "elements": [
        "O",
        "Pt",
        "Sr"
    ],
    "structure": {
        "@module": "pymatgen.core.structure",
        "@class": "Structure",
        "charge": null,
        "lattice": {
            "matrix": [
                [
                    4.84275343,
                    2.79596523,
                    3.94872911
                ],
                [
                    -4.84275343,
                    2.79596523,
                    3.94872911
                ],
                [
                    0.0,
                    -5.59193046,
                    3.94872911
                ]
            ],
            "a": 6.84559303021346,
            "b": 6.84559303021346,
            "c": 6.845593316407075,
            "alpha": 90.05181760804862,
            "beta": 90.05181760804862,
            "gamma": 90.05181281948518,
            "volume": 320.79878552202285
        },
        "sites": [
            {
                "species": [
                    {
                        "element": "Sr",
                        "occu": 1
                    }
                ],
                "abc": [
                    0.11768592,
                    0.75,
                    0.38231408
                ],
                "xyz": [
                    -3.0621411797572944,
                    0.2881459136416846,
                    4.9359113875
                ],
                "label": "Sr",
                "properties": {}
            },
            {
                "species": [
                    {
                        "element": "Sr",
                        "occu": 1
                    }
                ],
                "abc": [
                    0.75,
                    0.38231408,
                    0.11768592
                ],
                "xyz": [
                    1.7806122502427058,
                    2.5078193163583156,
                    4.935911387499999
                ],
                "label": "Sr",
                "properties": {}
            },
            {
                "species": [
                    {
                        "element": "Sr",
                        "occu": 1
                    }
                ],
                "abc": [
                    0.38231408,
                    0.11768592,
                    0.75
                ],
                "xyz": [
                    1.2815289295145886,
                    -2.79596523,
                    4.9359113875
                ],
                "label": "Sr",
                "properties": {}
            },
            {
                "species": [
                    {
                        "element": "Sr",
                        "occu": 1
                    }
                ],
                "abc": [
                    0.88231408,
                    0.25,
                    0.61768592
                ],
                "xyz": [
                    3.0621411797572944,
                    -0.2881459136416846,
                    6.910275942499999
                ],
                "label": "Sr",
                "properties": {}
            },
            {
                "species": [
                    {
                        "element": "Sr",
                        "occu": 1
                    }
                ],
                "abc": [
                    0.25,
                    0.61768592,
                    0.88231408
                ],
                "xyz": [
                    -1.7806122502427058,
                    -2.5078193163583156,
                    6.9102759425
                ],
                "label": "Sr",
                "properties": {}
            },
            {
                "species": [
                    {
                        "element": "Sr",
                        "occu": 1
                    }
                ],
                "abc": [
                    0.61768592,
                    0.88231408,
                    0.25
                ],
                "xyz": [
                    -1.2815289295145886,
                    2.79596523,
                    6.910275942499999
                ],
                "label": "Sr",
                "properties": {}
            },
            {
                "species": [
                    {
                        "element": "Sr",
                        "occu": 1
                    }
                ],
                "abc": [
                    0.75,
                    0.75,
                    0.75
                ],
                "xyz": [
                    0.0,
                    0.0,
                    8.8846404975
                ],
                "label": "Sr",
                "properties": {}
            },
            {
                "species": [
                    {
                        "element": "Sr",
                        "occu": 1
                    }
                ],
                "abc": [
                    0.25,
                    0.25,
                    0.25
                ],
                "xyz": [
                    0.0,
                    0.0,
                    2.9615468325
                ],
                "label": "Sr",
                "properties": {}
            },
            {
                "species": [
                    {
                        "element": "Pt",
                        "occu": 1
                    }
                ],
                "abc": [
                    0.5,
                    0.5,
                    0.5
                ],
                "xyz": [
                    0.0,
                    0.0,
                    5.923093665
                ],
                "label": "Pt",
                "properties": {}
            },
            {
                "species": [
                    {
                        "element": "Pt",
                        "occu": 1
                    }
                ],
                "abc": [
                    0.0,
                    0.0,
                    0.0
                ],
                "xyz": [
                    0.0,
                    0.0,
                    0.0
                ],
                "label": "Pt",
                "properties": {}
            },
            {
                "species": [
                    {
                        "element": "O",
                        "occu": 1
                    }
                ],
                "abc": [
                    0.78458715,
                    0.57294387,
                    0.44135081
                ],
                "xyz": [
                    1.0249362201564503,
                    1.3276064925817623,
                    7.103297047571072
                ],
                "label": "O",
                "properties": {}
            },
            {
                "species": [
                    {
                        "element": "O",
                        "occu": 1
                    }
                ],
                "abc": [
                    0.57294387,
                    0.44135081,
                    0.78458715
                ],
                "xyz": [
                    0.6372727426791958,
                    -1.5514241243556128,
                    7.103297047571072
                ],
                "label": "O",
                "properties": {}
            },
            {
                "species": [
                    {
                        "element": "O",
                        "occu": 1
                    }
                ],
                "abc": [
                    0.44135081,
                    0.78458715,
                    0.57294387
                ],
                "xyz": [
                    -1.662208962835646,
                    0.2238176317738505,
                    7.103297047571071
                ],
                "label": "O",
                "properties": {}
            },
            {
                "species": [
                    {
                        "element": "O",
                        "occu": 1
                    }
                ],
                "abc": [
                    0.05864919,
                    0.92705613,
                    0.71541285
                ],
                "xyz": [
                    -4.2054806873208035,
                    -1.2445411056443878,
                    6.7172548374289285
                ],
                "label": "O",
                "properties": {}
            },
            {
                "species": [
                    {
                        "element": "O",
                        "occu": 1
                    }
                ],
                "abc": [
                    0.92705613,
                    0.71541285,
                    0.05864919
                ],
                "xyz": [
                    1.0249362201564498,
                    4.264323967418238,
                    6.7172548374289285
                ],
                "label": "O",
                "properties": {}
            },
            {
                "species": [
                    {
                        "element": "O",
                        "occu": 1
                    }
                ],
                "abc": [
                    0.71541285,
                    0.05864919,
                    0.92705613
                ],
                "xyz": [
                    3.180544467164354,
                    -3.0197828617738502,
                    6.7172548374289285
                ],
                "label": "O",
                "properties": {}
            },
            {
                "species": [
                    {
                        "element": "O",
                        "occu": 1
                    }
                ],
                "abc": [
                    0.21541285,
                    0.42705613,
                    0.55864919
                ],
                "xyz": [
                    -1.0249362201564505,
                    -1.3276064925817623,
                    4.742890282428928
                ],
                "label": "O",
                "properties": {}
            },
            {
                "species": [
                    {
                        "element": "O",
                        "occu": 1
                    }
                ],
                "abc": [
                    0.42705613,
                    0.55864919,
                    0.21541285
                ],
                "xyz": [
                    -0.6372727426791958,
                    1.551424124355613,
                    4.742890282428928
                ],
                "label": "O",
                "properties": {}
            },
            {
                "species": [
                    {
                        "element": "O",
                        "occu": 1
                    }
                ],
                "abc": [
                    0.55864919,
                    0.21541285,
                    0.42705613
                ],
                "xyz": [
                    1.6622089628356462,
                    -0.2238176317738505,
                    4.742890282428929
                ],
                "label": "O",
                "properties": {}
            },
            {
                "species": [
                    {
                        "element": "O",
                        "occu": 1
                    }
                ],
                "abc": [
                    0.94135081,
                    0.07294387,
                    0.28458715
                ],
                "xyz": [
                    4.205480687320804,
                    1.2445411056443871,
                    5.128932492571072
                ],
                "label": "O",
                "properties": {}
            },
            {
                "species": [
                    {
                        "element": "O",
                        "occu": 1
                    }
                ],
                "abc": [
                    0.28458715,
                    0.94135081,
                    0.07294387
                ],
                "xyz": [
                    -3.1805444671643537,
                    3.0197828617738507,
                    5.128932492571072
                ],
                "label": "O",
                "properties": {}
            },
            {
                "species": [
                    {
                        "element": "O",
                        "occu": 1
                    }
                ],
                "abc": [
                    0.07294387,
                    0.28458715,
                    0.94135081
                ],
                "xyz": [
                    -1.0249362201564505,
                    -4.264323967418238,
                    5.128932492571071
                ],
                "label": "O",
                "properties": {}
            }
        ]
    },
    "spacegroup": {
        "source": "spglib",
        "symbol": "R-3c",
        "number": 167,
        "point_group": "-3m",
        "crystal_system": "trigonal",
        "hall": "-R 3 2\"c"
    },
    "dielectric": {
        "epsilon_ionic": [
            [
                10.56602276,
                -1e-08,
                -3e-08
            ],
            [
                -1e-08,
                10.56621352,
                -4.15e-06
            ],
            [
                -3e-08,
                -4.15e-06,
                9.24187683
            ]
        ],
        "epsilon_ionic_avg": 10.124704369999998,
        "epsilon_ionic_eig": [
            9.241876829986994,
            10.566022759999477,
            10.566213520013527
        ],
        "epsilon_electronic": [
            [
                4.47509802,
                -0.0,
                0.0
            ],
            [
                0.0,
                4.47509698,
                0.0
            ],
            [
                0.0,
                -0.0,
                4.73723298
            ]
        ],
        "epsilon_electronic_avg": 4.562475993333334,
        "epsilon_electronic_eig": [
            4.47509802,
            4.47509698,
            4.73723298
        ]
    },
    "phonon": {
        "lowest_freq": -0.017195041366878317,
        "frequency": [
            -0.017195041366878317,
            -0.017195039377001137,
            -0.016962019274149313,
            2.4115784817517083,
            2.4115786692389616,
            3.1187336243525188,
            3.135061374042879,
            3.1350614013278464,
            3.340484500112069,
            3.340484511086531,
            3.3846760260240623,
            3.6334249922208968,
            3.710590157771756,
            3.710590398181074,
            3.793474178871901,
            3.7934743431593834,
            3.863575960383195,
            4.369830463293672,
            4.5958602301486655,
            4.67744939205925,
            4.677449862315769,
            4.737036793783451,
            4.999355898431634,
            4.999356436181168,
            5.326890988552759,
            5.326891080313649,
            5.732687143151697,
            5.879316193235393,
            5.879316442652282,
            6.626486650997227,
            6.647922499973717,
            6.696197483920306,
            7.546812635976,
            7.546812684552825,
            8.171265204809382,
            8.615640725186157,
            8.615640867021304,
            9.113818647252957,
            9.113818834968004,
            9.34517149155898,
            9.957938399888564,
            9.9579384735183,
            10.343867520709196,
            10.343867579778042,
            11.198536451528367,
            11.198536462440515,
            11.234386847472987,
            11.234996461434235,
            11.23499647231097,
            11.630838192668682,
            12.111338654146461,
            12.111338795402599,
            12.930868494379185,
            13.438039728620886,
            13.67881596736116,
            13.831301109045476,
            13.831301356426527,
            14.808768532842683,
            15.250022456023784,
            15.250023105085459,
            15.76854213232357,
            15.768542442308002,
            16.156857274645407,
            16.15685742591253,
            16.491265065244974,
            16.85274973331391
        ]
    },
    "born_effective_charge": {
        "avg_abs_trace": 2.227193333333333,
        "tensors": [
            [
                [
                    2.84653,
                    -0.19998,
                    0.46272
                ],
                [
                    -0.19999,
                    2.61561,
                    -0.26709
                ],
                [
                    0.35948,
                    -0.20757,
                    2.38488
                ]
            ],
            [
                [
                    2.84653,
                    0.19998,
                    -0.46272
                ],
                [
                    0.19999,
                    2.61554,
                    -0.26724
                ],
                [
                    -0.3595,
                    -0.20753,
                    2.38488
                ]
            ],
            [
                [
                    2.50005,
                    0.0,
                    -0.0
                ],
                [
                    3e-05,
                    2.96197,
                    0.53432
                ],
                [
                    2e-05,
                    0.41511,
                    2.38488
                ]
            ],
            [
                [
                    2.84643,
                    -0.20001,
                    0.46275
                ],
                [
                    -0.19999,
                    2.61554,
                    -0.26724
                ],
                [
                    0.3595,
                    -0.20753,
                    2.38488
                ]
            ],
            [
                [
                    2.84643,
                    0.20001,
                    -0.46275
                ],
                [
                    0.19999,
                    2.61561,
                    -0.26709
                ],
                [
                    -0.35948,
                    -0.20757,
                    2.38488
                ]
            ],
            [
                [
                    2.50011,
                    0.0,
                    -0.0
                ],
                [
                    -3e-05,
                    2.96197,
                    0.53432
                ],
                [
                    -2e-05,
                    0.41511,
                    2.38488
                ]
            ],
            [
                [
                    1.69805,
                    0.0,
                    -0.0
                ],
                [
                    -0.0001,
                    1.69801,
                    0.0
                ],
                [
                    -0.0,
                    0.0,
                    3.97607
                ]
            ],
            [
                [
                    1.69793,
                    0.0,
                    -0.0
                ],
                [
                    0.0001,
                    1.69801,
                    0.0
                ],
                [
                    -0.0,
                    0.0,
                    3.97607
                ]
            ],
            [
                [
                    1.8994,
                    0.06721,
                    0.0
                ],
                [
                    -0.06721,
                    1.89937,
                    0.0
                ],
                [
                    -0.0,
                    0.0,
                    2.03705
                ]
            ],
            [
                [
                    1.8994,
                    -0.06721,
                    -0.0
                ],
                [
                    0.06721,
                    1.89937,
                    0.0
                ],
                [
                    -0.0,
                    0.0,
                    2.03705
                ]
            ],
            [
                [
                    -1.82039,
                    -0.40175,
                    -0.38842
                ],
                [
                    -0.46872,
                    -2.10986,
                    -0.55992
                ],
                [
                    -0.35823,
                    -0.51249,
                    -2.19461
                ]
            ],
            [
                [
                    -1.66053,
                    0.37649,
                    -0.29066
                ],
                [
                    0.3099,
                    -2.26944,
                    0.61635
                ],
                [
                    -0.26471,
                    0.56648,
                    -2.19461
                ]
            ],
            [
                [
                    -2.4144,
                    0.12554,
                    0.67913
                ],
                [
                    0.05878,
                    -1.51563,
                    -0.05641
                ],
                [
                    0.62294,
                    -0.05399,
                    -2.19461
                ]
            ],
            [
                [
                    -1.66053,
                    -0.37649,
                    0.29066
                ],
                [
                    -0.30924,
                    -2.26989,
                    0.6164
                ],
                [
                    0.26449,
                    0.56664,
                    -2.19464
                ]
            ],
            [
                [
                    -1.82039,
                    0.40175,
                    0.38842
                ],
                [
                    0.46875,
                    -2.10987,
                    -0.55996
                ],
                [
                    0.35848,
                    -0.51238,
                    -2.19464
                ]
            ],
            [
                [
                    -2.4144,
                    -0.12554,
                    -0.67913
                ],
                [
                    -0.05884,
                    -1.51581,
                    -0.05645
                ],
                [
                    -0.62297,
                    -0.05426,
                    -2.19464
                ]
            ],
            [
                [
                    -1.8202,
                    -0.40192,
                    -0.38848
                ],
                [
                    -0.46875,
                    -2.10987,
                    -0.55996
                ],
                [
                    -0.35848,
                    -0.51238,
                    -2.19464
                ]
            ],
            [
                [
                    -1.66045,
                    0.37647,
                    -0.29075
                ],
                [
                    0.30924,
                    -2.26989,
                    0.6164
                ],
                [
                    -0.26449,
                    0.56664,
                    -2.19464
                ]
            ],
            [
                [
                    -2.41447,
                    0.1259,
                    0.67917
                ],
                [
                    0.05884,
                    -1.51581,
                    -0.05645
                ],
                [
                    0.62297,
                    -0.05426,
                    -2.19464
                ]
            ],
            [
                [
                    -1.66045,
                    -0.37647,
                    0.29075
                ],
                [
                    -0.3099,
                    -2.26944,
                    0.61635
                ],
                [
                    0.26471,
                    0.56648,
                    -2.19461
                ]
            ],
            [
                [
                    -2.41447,
                    -0.1259,
                    -0.67917
                ],
                [
                    -0.05878,
                    -1.51563,
                    -0.05641
                ],
                [
                    -0.62294,
                    -0.05399,
                    -2.19461
                ]
            ],
            [
                [
                    -1.8202,
                    0.40192,
                    0.38848
                ],
                [
                    0.46872,
                    -2.10986,
                    -0.55992
                ],
                [
                    0.35823,
                    -0.51249,
                    -2.19461
                ]
            ]
        ]
    },
    "band_gap": 2.5464,
    "is_direct": true,
    "formula": "Sr4PtO6"
}