{
    "mp_id": "mp-505368",
    "nelements": 3,
    "nsites": 26,
    "elements": [
        "As",
        "O",
        "Pb"
    ],
    "structure": {
        "@module": "pymatgen.core.structure",
        "@class": "Structure",
        "charge": null,
        "lattice": {
            "matrix": [
                [
                    7.41880304,
                    0.0,
                    -0.005019
                ],
                [
                    0.0,
                    6.23862118,
                    0.0
                ],
                [
                    -3.85527197,
                    0.0,
                    8.47002367
                ]
            ],
            "a": 7.418804737737356,
            "b": 6.23862118,
            "c": 9.306149737298876,
            "alpha": 90.0,
            "beta": 114.51220538672132,
            "gamma": 90.0,
            "volume": 391.89825267340706
        },
        "sites": [
            {
                "species": [
                    {
                        "element": "As",
                        "occu": 1
                    }
                ],
                "abc": [
                    0.20401023,
                    0.98248081,
                    0.40279564
                ],
                "xyz": [
                    -0.03937502601511178,
                    6.129325590209556,
                    3.4106646776284286
                ],
                "label": "As",
                "properties": {}
            },
            {
                "species": [
                    {
                        "element": "As",
                        "occu": 1
                    }
                ],
                "abc": [
                    0.79598977,
                    0.48248081,
                    0.09720436
                ],
                "xyz": [
                    5.5305420810151125,
                    3.0100150002095556,
                    0.8193281573715712
                ],
                "label": "As",
                "properties": {}
            },
            {
                "species": [
                    {
                        "element": "As",
                        "occu": 1
                    }
                ],
                "abc": [
                    0.79598977,
                    0.01751919,
                    0.59720436
                ],
                "xyz": [
                    3.6029060960151122,
                    0.10929558979044421,
                    5.054339992371571
                ],
                "label": "As",
                "properties": {}
            },
            {
                "species": [
                    {
                        "element": "As",
                        "occu": 1
                    }
                ],
                "abc": [
                    0.20401023,
                    0.51751919,
                    0.90279564
                ],
                "xyz": [
                    -1.9670110110151116,
                    3.2286061797904444,
                    7.6456765126284285
                ],
                "label": "As",
                "properties": {}
            },
            {
                "species": [
                    {
                        "element": "Pb",
                        "occu": 1
                    }
                ],
                "abc": [
                    0.0,
                    0.0,
                    0.0
                ],
                "xyz": [
                    0.0,
                    0.0,
                    0.0
                ],
                "label": "Pb",
                "properties": {}
            },
            {
                "species": [
                    {
                        "element": "Pb",
                        "occu": 1
                    }
                ],
                "abc": [
                    0.0,
                    0.5,
                    0.5
                ],
                "xyz": [
                    -1.927635985,
                    3.11931059,
                    4.235011835
                ],
                "label": "Pb",
                "properties": {}
            },
            {
                "species": [
                    {
                        "element": "Pb",
                        "occu": 1
                    }
                ],
                "abc": [
                    0.38521057,
                    0.09156545,
                    0.79103929
                ],
                "xyz": [
                    -0.1918702541495687,
                    0.571242155726231,
                    6.698188138349163
                ],
                "label": "Pb",
                "properties": {}
            },
            {
                "species": [
                    {
                        "element": "Pb",
                        "occu": 1
                    }
                ],
                "abc": [
                    0.61478943,
                    0.59156545,
                    0.70896071
                ],
                "xyz": [
                    1.8277653391495678,
                    3.6905527457262313,
                    6.0018283666508365
                ],
                "label": "Pb",
                "properties": {}
            },
            {
                "species": [
                    {
                        "element": "Pb",
                        "occu": 1
                    }
                ],
                "abc": [
                    0.61478943,
                    0.90843455,
                    0.20896071
                ],
                "xyz": [
                    3.755401324149568,
                    5.667379024273768,
                    1.7668165316508355
                ],
                "label": "Pb",
                "properties": {}
            },
            {
                "species": [
                    {
                        "element": "Pb",
                        "occu": 1
                    }
                ],
                "abc": [
                    0.38521057,
                    0.40843455,
                    0.29103929
                ],
                "xyz": [
                    1.7357657308504313,
                    2.548068434273769,
                    2.4631763033491643
                ],
                "label": "Pb",
                "properties": {}
            },
            {
                "species": [
                    {
                        "element": "O",
                        "occu": 1
                    }
                ],
                "abc": [
                    0.28017145,
                    0.76289297,
                    0.52267593
                ],
                "xyz": [
                    0.06347894265852583,
                    4.759400240715105,
                    4.425671318331713
                ],
                "label": "O",
                "properties": {}
            },
            {
                "species": [
                    {
                        "element": "O",
                        "occu": 1
                    }
                ],
                "abc": [
                    0.71982855,
                    0.26289297,
                    0.97732407
                ],
                "xyz": [
                    1.5724161423414746,
                    1.6400896507151046,
                    8.274345186668286
                ],
                "label": "O",
                "properties": {}
            },
            {
                "species": [
                    {
                        "element": "O",
                        "occu": 1
                    }
                ],
                "abc": [
                    0.71982855,
                    0.23710703,
                    0.47732407
                ],
                "xyz": [
                    3.500052127341475,
                    1.4792209392848954,
                    4.0393333516682866
                ],
                "label": "O",
                "properties": {}
            },
            {
                "species": [
                    {
                        "element": "O",
                        "occu": 1
                    }
                ],
                "abc": [
                    0.28017145,
                    0.73710703,
                    0.02267593
                ],
                "xyz": [
                    1.991114927658526,
                    4.598531529284895,
                    0.1906594833317131
                ],
                "label": "O",
                "properties": {}
            },
            {
                "species": [
                    {
                        "element": "O",
                        "occu": 1
                    }
                ],
                "abc": [
                    0.25880483,
                    0.29300508,
                    0.02364823
                ],
                "xyz": [
                    1.8288517013115702,
                    1.8279476979355942,
                    0.19900212641183407
                ],
                "label": "O",
                "properties": {}
            },
            {
                "species": [
                    {
                        "element": "O",
                        "occu": 1
                    }
                ],
                "abc": [
                    0.74119517,
                    0.79300508,
                    0.47635177
                ],
                "xyz": [
                    3.66231535368843,
                    4.947258287935594,
                    4.030990708588166
                ],
                "label": "O",
                "properties": {}
            },
            {
                "species": [
                    {
                        "element": "O",
                        "occu": 1
                    }
                ],
                "abc": [
                    0.74119517,
                    0.70699492,
                    0.97635177
                ],
                "xyz": [
                    1.7346793686884308,
                    4.410673482064405,
                    8.266002543588165
                ],
                "label": "O",
                "properties": {}
            },
            {
                "species": [
                    {
                        "element": "O",
                        "occu": 1
                    }
                ],
                "abc": [
                    0.25880483,
                    0.20699492,
                    0.52364823
                ],
                "xyz": [
                    -0.09878428368843006,
                    1.2913628920644056,
                    4.434013961411834
                ],
                "label": "O",
                "properties": {}
            },
            {
                "species": [
                    {
                        "element": "O",
                        "occu": 1
                    }
                ],
                "abc": [
                    0.67397109,
                    0.97237744,
                    0.71807126
                ],
                "xyz": [
                    2.231698770223532,
                    6.066294492138179,
                    6.0786979080460135
                ],
                "label": "O",
                "properties": {}
            },
            {
                "species": [
                    {
                        "element": "O",
                        "occu": 1
                    }
                ],
                "abc": [
                    0.32602891,
                    0.47237744,
                    0.78192874
                ],
                "xyz": [
                    -0.5958036852235313,
                    2.946983902138179,
                    6.621318596953985
                ],
                "label": "O",
                "properties": {}
            },
            {
                "species": [
                    {
                        "element": "O",
                        "occu": 1
                    }
                ],
                "abc": [
                    0.32602891,
                    0.02762256,
                    0.28192874
                ],
                "xyz": [
                    1.3318322997764689,
                    0.17232668786182082,
                    2.386306761953986
                ],
                "label": "O",
                "properties": {}
            },
            {
                "species": [
                    {
                        "element": "O",
                        "occu": 1
                    }
                ],
                "abc": [
                    0.67397109,
                    0.52762256,
                    0.21807126
                ],
                "xyz": [
                    4.159334755223532,
                    3.2916372778618204,
                    1.843686073046014
                ],
                "label": "O",
                "properties": {}
            },
            {
                "species": [
                    {
                        "element": "O",
                        "occu": 1
                    }
                ],
                "abc": [
                    0.96132115,
                    0.96423661,
                    0.27443944
                ],
                "xyz": [
                    6.073813589541799,
                    6.0155069376774,
                    2.319683681929695
                ],
                "label": "O",
                "properties": {}
            },
            {
                "species": [
                    {
                        "element": "O",
                        "occu": 1
                    }
                ],
                "abc": [
                    0.03867885,
                    0.46423661,
                    0.22556056
                ],
                "xyz": [
                    -0.5826465345417993,
                    2.8961963476774,
                    1.9103091530703051
                ],
                "label": "O",
                "properties": {}
            },
            {
                "species": [
                    {
                        "element": "O",
                        "occu": 1
                    }
                ],
                "abc": [
                    0.03867885,
                    0.03576339,
                    0.72556056
                ],
                "xyz": [
                    -2.5102825195417995,
                    0.2231142423226002,
                    6.145320988070305
                ],
                "label": "O",
                "properties": {}
            },
            {
                "species": [
                    {
                        "element": "O",
                        "occu": 1
                    }
                ],
                "abc": [
                    0.96132115,
                    0.53576339,
                    0.77443944
                ],
                "xyz": [
                    4.1461776045417995,
                    3.3424248323226,
                    6.554695516929694
                ],
                "label": "O",
                "properties": {}
            }
        ]
    },
    "spacegroup": {
        "source": "spglib",
        "symbol": "P2_1/c",
        "number": 14,
        "point_group": "2/m",
        "crystal_system": "monoclinic",
        "hall": "-P 2ybc"
    },
    "dielectric": {
        "epsilon_ionic": [
            [
                23.04168834,
                4e-08,
                -0.45586866
            ],
            [
                4e-08,
                18.76346467,
                -2e-08
            ],
            [
                -0.45586866,
                -2e-08,
                24.3690804
            ]
        ],
        "epsilon_ionic_avg": 22.058077803333347,
        "epsilon_ionic_eig": [
            22.900208205792477,
            24.51056053420756,
            18.763464670000005
        ],
        "epsilon_electronic": [
            [
                4.95462001,
                0.0,
                0.09478114
            ],
            [
                0.0,
                4.62163962,
                0.0
            ],
            [
                0.09477791,
                0.0,
                5.03871627
            ]
        ],
        "epsilon_electronic_avg": 4.871658633333333,
        "epsilon_electronic_eig": [
            4.892980129154415,
            5.1003561508455855,
            4.62163962
        ]
    },
    "phonon": {
        "lowest_freq": -0.05140802958026913,
        "frequency": [
            -0.05140802958026913,
            -0.03300853982331928,
            -0.017309639421055626,
            1.2336573636941874,
            1.420518968125144,
            1.4569484605446832,
            1.5291746160477473,
            1.5508610755070917,
            1.6749412004440234,
            1.714576907189575,
            1.8078427963753578,
            2.0391238240205016,
            2.128224361893509,
            2.154399546313688,
            2.236775099590947,
            2.315417226457699,
            2.5032557058480696,
            2.5404397292183303,
            2.6392445053448657,
            2.67670009850619,
            2.9602414017124614,
            3.001526849616421,
            3.444327968419491,
            3.4469906930689644,
            3.587129845966301,
            3.7810746651901908,
            3.8132692106981003,
            4.053151261156741,
            4.076347028624733,
            4.363124316207029,
            4.738740018593229,
            4.88346546597996,
            4.970662444277444,
            5.138099218691066,
            5.146439138592499,
            5.367810767384785,
            5.627096726007883,
            6.000626083951845,
            6.393456948938478,
            6.404419120932851,
            6.415522448710945,
            6.452305123382841,
            8.404898076017673,
            8.7294938368848,
            8.83921846683393,
            9.217393387611924,
            9.345211034141718,
            9.418424064638284,
            9.446534145183486,
            9.833771458850224,
            10.038246676860778,
            10.167973917171368,
            10.954189362351705,
            10.999580555408428,
            11.014013230124913,
            11.585395173679599,
            11.717973899632836,
            11.79989843646677,
            11.971429154581502,
            12.508609267561239,
            12.539671261149776,
            12.832111811809456,
            21.10604974474326,
            21.247963406211696,
            21.776426132268398,
            21.987559623452142,
            22.04737206261047,
            22.109987622293875,
            22.30715254314698,
            22.58735791312921,
            23.117423241947137,
            23.439663300200394,
            23.597486040226304,
            23.734990298428553,
            24.11197624513628,
            24.37685792173831,
            24.606874805780485,
            24.696993431197846
        ]
    },
    "born_effective_charge": {
        "avg_abs_trace": 2.7296117948717953,
        "tensors": [
            [
                [
                    3.09706,
                    0.14109,
                    -0.11892
                ],
                [
                    0.52876,
                    3.70387,
                    -0.13761
                ],
                [
                    -0.05454,
                    0.06861,
                    4.18652
                ]
            ],
            [
                [
                    3.097,
                    -0.14097,
                    -0.11893
                ],
                [
                    -0.52876,
                    3.70387,
                    0.13761
                ],
                [
                    -0.05424,
                    -0.06867,
                    4.18662
                ]
            ],
            [
                [
                    3.097,
                    0.14097,
                    -0.11893
                ],
                [
                    0.52825,
                    3.70347,
                    -0.13693
                ],
                [
                    -0.05424,
                    0.06867,
                    4.18662
                ]
            ],
            [
                [
                    3.09706,
                    -0.14109,
                    -0.11892
                ],
                [
                    -0.52825,
                    3.70347,
                    0.13693
                ],
                [
                    -0.05454,
                    -0.06861,
                    4.18652
                ]
            ],
            [
                [
                    3.55,
                    -0.02089,
                    -0.02457
                ],
                [
                    0.03458,
                    3.30495,
                    0.06237
                ],
                [
                    -0.21616,
                    0.08052,
                    3.55958
                ]
            ],
            [
                [
                    3.55,
                    0.02089,
                    -0.02457
                ],
                [
                    -0.03458,
                    3.30495,
                    -0.06237
                ],
                [
                    -0.21616,
                    -0.08052,
                    3.55958
                ]
            ],
            [
                [
                    3.98232,
                    -0.20614,
                    0.3184
                ],
                [
                    -0.01971,
                    2.97436,
                    0.30993
                ],
                [
                    0.36207,
                    0.28012,
                    3.46281
                ]
            ],
            [
                [
                    3.9824,
                    0.2061,
                    0.31856
                ],
                [
                    0.01971,
                    2.97436,
                    -0.30993
                ],
                [
                    0.36207,
                    -0.28007,
                    3.46272
                ]
            ],
            [
                [
                    3.9824,
                    -0.2061,
                    0.31856
                ],
                [
                    -0.01987,
                    2.97375,
                    0.31001
                ],
                [
                    0.36207,
                    0.28007,
                    3.46272
                ]
            ],
            [
                [
                    3.98232,
                    0.20614,
                    0.3184
                ],
                [
                    0.01987,
                    2.97375,
                    -0.31001
                ],
                [
                    0.36207,
                    -0.28012,
                    3.46281
                ]
            ],
            [
                [
                    -1.77615,
                    0.01925,
                    -0.39001
                ],
                [
                    -0.23692,
                    -2.63905,
                    0.41374
                ],
                [
                    -0.31228,
                    0.59811,
                    -2.01878
                ]
            ],
            [
                [
                    -1.77633,
                    -0.01937,
                    -0.38992
                ],
                [
                    0.23692,
                    -2.63905,
                    -0.41374
                ],
                [
                    -0.31226,
                    -0.5979,
                    -2.01869
                ]
            ],
            [
                [
                    -1.77633,
                    0.01937,
                    -0.38992
                ],
                [
                    -0.23722,
                    -2.63856,
                    0.41363
                ],
                [
                    -0.31226,
                    0.5979,
                    -2.01869
                ]
            ],
            [
                [
                    -1.77615,
                    -0.01925,
                    -0.39001
                ],
                [
                    0.23722,
                    -2.63856,
                    -0.41363
                ],
                [
                    -0.31228,
                    -0.59811,
                    -2.01878
                ]
            ],
            [
                [
                    -1.49656,
                    -0.30951,
                    0.29955
                ],
                [
                    -0.34813,
                    -2.41297,
                    0.27871
                ],
                [
                    0.24005,
                    0.21443,
                    -2.88097
                ]
            ],
            [
                [
                    -1.4966,
                    0.30919,
                    0.29946
                ],
                [
                    0.34813,
                    -2.41297,
                    -0.27871
                ],
                [
                    0.23996,
                    -0.21435,
                    -2.88131
                ]
            ],
            [
                [
                    -1.4966,
                    -0.30919,
                    0.29946
                ],
                [
                    -0.34835,
                    -2.41243,
                    0.27861
                ],
                [
                    0.23996,
                    0.21435,
                    -2.88131
                ]
            ],
            [
                [
                    -1.49656,
                    0.30951,
                    0.29955
                ],
                [
                    0.34835,
                    -2.41243,
                    -0.27861
                ],
                [
                    0.24005,
                    -0.21443,
                    -2.88097
                ]
            ],
            [
                [
                    -2.75023,
                    -0.42146,
                    0.61077
                ],
                [
                    -0.341,
                    -2.08142,
                    0.05257
                ],
                [
                    0.40397,
                    0.06859,
                    -2.09494
                ]
            ],
            [
                [
                    -2.75027,
                    0.42153,
                    0.61077
                ],
                [
                    0.341,
                    -2.08142,
                    -0.05257
                ],
                [
                    0.40413,
                    -0.06865,
                    -2.09477
                ]
            ],
            [
                [
                    -2.75027,
                    -0.42153,
                    0.61077
                ],
                [
                    -0.34179,
                    -2.08109,
                    0.05301
                ],
                [
                    0.40413,
                    0.06865,
                    -2.09477
                ]
            ],
            [
                [
                    -2.75023,
                    0.42146,
                    0.61077
                ],
                [
                    0.34179,
                    -2.08109,
                    -0.05301
                ],
                [
                    0.40397,
                    -0.06859,
                    -2.09494
                ]
            ],
            [
                [
                    -2.83131,
                    -0.23556,
                    -0.70756
                ],
                [
                    -0.40035,
                    -1.19742,
                    -0.0276
                ],
                [
                    -0.53142,
                    0.00241,
                    -2.43449
                ]
            ],
            [
                [
                    -2.83134,
                    0.23565,
                    -0.70761
                ],
                [
                    0.40035,
                    -1.19742,
                    0.0276
                ],
                [
                    -0.53135,
                    -0.00245,
                    -2.43429
                ]
            ],
            [
                [
                    -2.83134,
                    -0.23565,
                    -0.70761
                ],
                [
                    -0.40042,
                    -1.19746,
                    -0.02766
                ],
                [
                    -0.53135,
                    0.00245,
                    -2.43429
                ]
            ],
            [
                [
                    -2.83131,
                    0.23556,
                    -0.70756
                ],
                [
                    0.40042,
                    -1.19746,
                    0.02766
                ],
                [
                    -0.53142,
                    -0.00241,
                    -2.43449
                ]
            ]
        ]
    },
    "band_gap": 3.2686,
    "is_direct": false,
    "formula": "As2Pb3O8"
}