{
    "mp_id": "mp-504591",
    "nelements": 3,
    "nsites": 24,
    "elements": [
        "O",
        "Pb",
        "W"
    ],
    "structure": {
        "@module": "pymatgen.core.structure",
        "@class": "Structure",
        "charge": null,
        "lattice": {
            "matrix": [
                [
                    5.53127581,
                    0.0,
                    -0.00132042
                ],
                [
                    0.0,
                    5.00594244,
                    0.0
                ],
                [
                    -4.35023144,
                    0.0,
                    12.82511549
                ]
            ],
            "a": 5.531275967604594,
            "b": 5.00594244,
            "c": 13.542824702158795,
            "alpha": 90.0,
            "beta": 108.75042257694282,
            "gamma": 90.0,
            "volume": 355.08905279744334
        },
        "sites": [
            {
                "species": [
                    {
                        "element": "Pb",
                        "occu": 1
                    }
                ],
                "abc": [
                    0.83765033,
                    0.29637365,
                    0.34570064
                ],
                "xyz": [
                    3.129397214611396,
                    1.483629432632706,
                    4.432544582718175
                ],
                "label": "Pb",
                "properties": {}
            },
            {
                "species": [
                    {
                        "element": "Pb",
                        "occu": 1
                    }
                ],
                "abc": [
                    0.16234967,
                    0.79637365,
                    0.15429936
                ],
                "xyz": [
                    0.2267628753886044,
                    3.9866006526327062,
                    1.978692742281825
                ],
                "label": "Pb",
                "properties": {}
            },
            {
                "species": [
                    {
                        "element": "Pb",
                        "occu": 1
                    }
                ],
                "abc": [
                    0.16234967,
                    0.70362635,
                    0.65429936
                ],
                "xyz": [
                    -1.9483528446113954,
                    3.522313007367294,
                    8.391250487281825
                ],
                "label": "Pb",
                "properties": {}
            },
            {
                "species": [
                    {
                        "element": "Pb",
                        "occu": 1
                    }
                ],
                "abc": [
                    0.83765033,
                    0.20362635,
                    0.84570064
                ],
                "xyz": [
                    0.9542814946113958,
                    1.019341787367294,
                    10.845102327718175
                ],
                "label": "Pb",
                "properties": {}
            },
            {
                "species": [
                    {
                        "element": "W",
                        "occu": 1
                    }
                ],
                "abc": [
                    0.39666222,
                    0.74967222,
                    0.4237636
                ],
                "xyz": [
                    0.35057840637931426,
                    3.752815982187017,
                    5.434293349729632
                ],
                "label": "W",
                "properties": {}
            },
            {
                "species": [
                    {
                        "element": "W",
                        "occu": 1
                    }
                ],
                "abc": [
                    0.60333778,
                    0.24967222,
                    0.0762364
                ],
                "xyz": [
                    3.005581683620686,
                    1.2498447621870168,
                    0.9769439752703684
                ],
                "label": "W",
                "properties": {}
            },
            {
                "species": [
                    {
                        "element": "W",
                        "occu": 1
                    }
                ],
                "abc": [
                    0.60333778,
                    0.25032778,
                    0.5762364
                ],
                "xyz": [
                    0.8304659636206861,
                    1.2531264578129833,
                    7.389501720270368
                ],
                "label": "W",
                "properties": {}
            },
            {
                "species": [
                    {
                        "element": "W",
                        "occu": 1
                    }
                ],
                "abc": [
                    0.39666222,
                    0.75032778,
                    0.9237636
                ],
                "xyz": [
                    -1.8245373136206862,
                    3.756097677812983,
                    11.846851094729633
                ],
                "label": "W",
                "properties": {}
            },
            {
                "species": [
                    {
                        "element": "O",
                        "occu": 1
                    }
                ],
                "abc": [
                    0.26857875,
                    0.44932344,
                    0.47775458
                ],
                "xyz": [
                    -0.5927598515649575,
                    2.249287277582794,
                    6.126903027623369
                ],
                "label": "O",
                "properties": {}
            },
            {
                "species": [
                    {
                        "element": "O",
                        "occu": 1
                    }
                ],
                "abc": [
                    0.73142125,
                    0.94932344,
                    0.02224542
                ],
                "xyz": [
                    3.9489199415649585,
                    4.752258497582794,
                    0.2843342973766308
                ],
                "label": "O",
                "properties": {}
            },
            {
                "species": [
                    {
                        "element": "O",
                        "occu": 1
                    }
                ],
                "abc": [
                    0.73142125,
                    0.55067656,
                    0.52224542
                ],
                "xyz": [
                    1.7738042215649585,
                    2.756655162417206,
                    6.69689204237663
                ],
                "label": "O",
                "properties": {}
            },
            {
                "species": [
                    {
                        "element": "O",
                        "occu": 1
                    }
                ],
                "abc": [
                    0.26857875,
                    0.05067656,
                    0.97775458
                ],
                "xyz": [
                    -2.767875571564958,
                    0.25368394241720643,
                    12.53946077262337
                ],
                "label": "O",
                "properties": {}
            },
            {
                "species": [
                    {
                        "element": "O",
                        "occu": 1
                    }
                ],
                "abc": [
                    0.61523823,
                    0.06040135,
                    0.44069103
                ],
                "xyz": [
                    1.4859443649542334,
                    0.302365681398294,
                    5.651100982293398
                ],
                "label": "O",
                "properties": {}
            },
            {
                "species": [
                    {
                        "element": "O",
                        "occu": 1
                    }
                ],
                "abc": [
                    0.38476177,
                    0.56040135,
                    0.05930897
                ],
                "xyz": [
                    1.870215725045767,
                    2.8053369013982943,
                    0.7601363427066019
                ],
                "label": "O",
                "properties": {}
            },
            {
                "species": [
                    {
                        "element": "O",
                        "occu": 1
                    }
                ],
                "abc": [
                    0.38476177,
                    0.93959865,
                    0.55930897
                ],
                "xyz": [
                    -0.30489999495423303,
                    4.703576758601706,
                    7.172694087706602
                ],
                "label": "O",
                "properties": {}
            },
            {
                "species": [
                    {
                        "element": "O",
                        "occu": 1
                    }
                ],
                "abc": [
                    0.61523823,
                    0.43959865,
                    0.94069103
                ],
                "xyz": [
                    -0.6891713550457661,
                    2.200605538601706,
                    12.063658727293399
                ],
                "label": "O",
                "properties": {}
            },
            {
                "species": [
                    {
                        "element": "O",
                        "occu": 1
                    }
                ],
                "abc": [
                    0.09254502,
                    0.87930683,
                    0.34539691
                ],
                "xyz": [
                    -0.9906644666988842,
                    4.401759378078865,
                    4.429633062343828
                ],
                "label": "O",
                "properties": {}
            },
            {
                "species": [
                    {
                        "element": "O",
                        "occu": 1
                    }
                ],
                "abc": [
                    0.90745498,
                    0.37930683,
                    0.15460309
                ],
                "xyz": [
                    4.346824556698885,
                    1.8987881580788653,
                    1.9816042626561725
                ],
                "label": "O",
                "properties": {}
            },
            {
                "species": [
                    {
                        "element": "O",
                        "occu": 1
                    }
                ],
                "abc": [
                    0.90745498,
                    0.12069317,
                    0.65460309
                ],
                "xyz": [
                    2.1717088366988846,
                    0.6041830619211348,
                    8.394162007656172
                ],
                "label": "O",
                "properties": {}
            },
            {
                "species": [
                    {
                        "element": "O",
                        "occu": 1
                    }
                ],
                "abc": [
                    0.09254502,
                    0.62069317,
                    0.84539691
                ],
                "xyz": [
                    -3.1657801866988837,
                    3.107154281921135,
                    10.842190807343826
                ],
                "label": "O",
                "properties": {}
            },
            {
                "species": [
                    {
                        "element": "O",
                        "occu": 1
                    }
                ],
                "abc": [
                    0.47579152,
                    0.61175061,
                    0.31409401
                ],
                "xyz": [
                    1.265352487761457,
                    3.0623883412948882,
                    4.027663708328376
                ],
                "label": "O",
                "properties": {}
            },
            {
                "species": [
                    {
                        "element": "O",
                        "occu": 1
                    }
                ],
                "abc": [
                    0.52420848,
                    0.11175061,
                    0.18590599
                ],
                "xyz": [
                    2.0908076022385433,
                    0.5594171212948884,
                    2.3835736166716237
                ],
                "label": "O",
                "properties": {}
            },
            {
                "species": [
                    {
                        "element": "O",
                        "occu": 1
                    }
                ],
                "abc": [
                    0.52420848,
                    0.38824939,
                    0.68590599
                ],
                "xyz": [
                    -0.08430811776145619,
                    1.9435540987051119,
                    8.796131361671623
                ],
                "label": "O",
                "properties": {}
            },
            {
                "species": [
                    {
                        "element": "O",
                        "occu": 1
                    }
                ],
                "abc": [
                    0.47579152,
                    0.88824939,
                    0.81409401
                ],
                "xyz": [
                    -0.9097632322385434,
                    4.4465253187051115,
                    10.440221453328377
                ],
                "label": "O",
                "properties": {}
            }
        ]
    },
    "spacegroup": {
        "source": "spglib",
        "symbol": "P2_1/c",
        "number": 14,
        "point_group": "2/m",
        "crystal_system": "monoclinic",
        "hall": "-P 2ybc"
    },
    "dielectric": {
        "epsilon_ionic": [
            [
                17.78105945,
                -1e-08,
                -0.37687829
            ],
            [
                -1e-08,
                16.38044319,
                3e-08
            ],
            [
                -0.37687829,
                3e-08,
                16.48092642
            ]
        ],
        "epsilon_ionic_avg": 16.88080968666667,
        "epsilon_ionic_eig": [
            17.88240741409764,
            16.379578455901573,
            16.380443190000804
        ],
        "epsilon_electronic": [
            [
                5.14994755,
                0.0,
                0.01002462
            ],
            [
                0.0,
                5.23954446,
                0.0
            ],
            [
                0.01001412,
                0.0,
                5.41150308
            ]
        ],
        "epsilon_electronic_avg": 5.266998363333333,
        "epsilon_electronic_eig": [
            5.149564301104752,
            5.411886328895249,
            5.23954446
        ]
    },
    "phonon": {
        "lowest_freq": -0.03334423480029772,
        "frequency": [
            -0.03334423480029772,
            -0.027472548880887994,
            -0.018876042964951305,
            0.9494239038869834,
            1.0588108416631254,
            1.0995575143954257,
            1.1539123320466391,
            1.7710328016627905,
            1.8766952505787176,
            2.0198336415418416,
            2.088649493835225,
            2.208207886379296,
            2.3591978092625214,
            2.459310001986165,
            2.900539536420478,
            2.9633540276800097,
            3.065282151717941,
            3.072688478704933,
            3.237383442362544,
            3.322446152144411,
            3.8567483058330176,
            4.2292477991420805,
            4.583929593866893,
            4.796788068545969,
            5.088234976031071,
            5.213835711634053,
            5.372958798779832,
            5.403176332425978,
            5.925518155446462,
            5.974930916649482,
            6.206853629977778,
            6.275599664654485,
            7.092046358158313,
            7.618615095414511,
            7.724278939800961,
            7.752427982027343,
            8.202994477793254,
            8.213394531843417,
            8.227694753170145,
            8.401879846472927,
            8.632260411968081,
            9.004800611520814,
            10.356338367936765,
            10.433771947808609,
            10.887926776608259,
            11.815375776058712,
            11.919553970141628,
            12.38398073192462,
            12.74516358624342,
            12.840732421174017,
            13.934270674738594,
            14.483445069297861,
            14.723171541349151,
            14.837556065101863,
            15.574819448550992,
            15.690143981259038,
            16.404927896851774,
            16.482008652953805,
            18.858328112938118,
            19.052780798177228,
            19.43798671129191,
            19.54668178077787,
            19.82441403479443,
            20.690556307965853,
            20.776239642430372,
            20.800407403702987,
            20.9649569223409,
            21.332407106869706,
            23.952357381779883,
            24.19167820570229,
            24.343054895124112,
            24.534374210635946
        ]
    },
    "born_effective_charge": {
        "avg_abs_trace": 3.2644744444444442,
        "tensors": [
            [
                [
                    4.21817,
                    -0.52032,
                    0.05056
                ],
                [
                    -0.22745,
                    3.18329,
                    0.00894
                ],
                [
                    0.05478,
                    0.16315,
                    3.66069
                ]
            ],
            [
                [
                    4.21819,
                    0.52033,
                    0.05055
                ],
                [
                    0.22745,
                    3.18329,
                    -0.00894
                ],
                [
                    0.05481,
                    -0.1632,
                    3.66067
                ]
            ],
            [
                [
                    4.21819,
                    -0.52033,
                    0.05055
                ],
                [
                    -0.22677,
                    3.18356,
                    0.00888
                ],
                [
                    0.05481,
                    0.1632,
                    3.66067
                ]
            ],
            [
                [
                    4.21817,
                    0.52032,
                    0.05056
                ],
                [
                    0.22677,
                    3.18356,
                    -0.00888
                ],
                [
                    0.05478,
                    -0.16315,
                    3.66069
                ]
            ],
            [
                [
                    5.09683,
                    0.07939,
                    -0.05883
                ],
                [
                    -0.39342,
                    7.11629,
                    0.10771
                ],
                [
                    0.08619,
                    0.09674,
                    6.10501
                ]
            ],
            [
                [
                    5.09682,
                    -0.07942,
                    -0.0588
                ],
                [
                    0.39342,
                    7.11629,
                    -0.10771
                ],
                [
                    0.08628,
                    -0.09678,
                    6.10493
                ]
            ],
            [
                [
                    5.09682,
                    0.07942,
                    -0.0588
                ],
                [
                    -0.39308,
                    7.11609,
                    0.1075
                ],
                [
                    0.08628,
                    0.09678,
                    6.10493
                ]
            ],
            [
                [
                    5.09683,
                    -0.07939,
                    -0.05883
                ],
                [
                    0.39308,
                    7.11609,
                    -0.1075
                ],
                [
                    0.08619,
                    -0.09674,
                    6.10501
                ]
            ],
            [
                [
                    -2.28929,
                    -0.5607,
                    -0.44705
                ],
                [
                    -0.44813,
                    -3.06761,
                    1.10584
                ],
                [
                    -0.56659,
                    0.80892,
                    -2.22001
                ]
            ],
            [
                [
                    -2.28934,
                    0.56065,
                    -0.4471
                ],
                [
                    0.44813,
                    -3.06761,
                    -1.10584
                ],
                [
                    -0.56666,
                    -0.80903,
                    -2.21994
                ]
            ],
            [
                [
                    -2.28934,
                    -0.56065,
                    -0.4471
                ],
                [
                    -0.4481,
                    -3.06743,
                    1.10625
                ],
                [
                    -0.56666,
                    0.80903,
                    -2.21994
                ]
            ],
            [
                [
                    -2.28929,
                    0.5607,
                    -0.44705
                ],
                [
                    0.4481,
                    -3.06743,
                    -1.10625
                ],
                [
                    -0.56659,
                    -0.80892,
                    -2.22001
                ]
            ],
            [
                [
                    -2.16489,
                    -1.21205,
                    0.74862
                ],
                [
                    -1.30986,
                    -3.38776,
                    -0.7481
                ],
                [
                    0.73312,
                    -0.55909,
                    -2.25428
                ]
            ],
            [
                [
                    -2.16498,
                    1.21211,
                    0.74855
                ],
                [
                    1.30986,
                    -3.38776,
                    0.7481
                ],
                [
                    0.73307,
                    0.55919,
                    -2.25417
                ]
            ],
            [
                [
                    -2.16498,
                    -1.21211,
                    0.74855
                ],
                [
                    -1.3099,
                    -3.38813,
                    -0.74837
                ],
                [
                    0.73307,
                    -0.55919,
                    -2.25417
                ]
            ],
            [
                [
                    -2.16489,
                    1.21205,
                    0.74862
                ],
                [
                    1.3099,
                    -3.38813,
                    0.74837
                ],
                [
                    0.73312,
                    0.55909,
                    -2.25428
                ]
            ],
            [
                [
                    -2.68532,
                    1.36864,
                    -0.81681
                ],
                [
                    1.27535,
                    -2.07368,
                    0.29308
                ],
                [
                    -1.08378,
                    0.49685,
                    -2.0387
                ]
            ],
            [
                [
                    -2.68541,
                    -1.36864,
                    -0.8169
                ],
                [
                    -1.27535,
                    -2.07368,
                    -0.29308
                ],
                [
                    -1.08385,
                    -0.49688,
                    -2.03873
                ]
            ],
            [
                [
                    -2.68541,
                    1.36864,
                    -0.8169
                ],
                [
                    1.27545,
                    -2.07326,
                    0.29293
                ],
                [
                    -1.08385,
                    0.49688,
                    -2.03873
                ]
            ],
            [
                [
                    -2.68532,
                    -1.36864,
                    -0.81681
                ],
                [
                    -1.27545,
                    -2.07326,
                    -0.29293
                ],
                [
                    -1.08378,
                    -0.49685,
                    -2.0387
                ]
            ],
            [
                [
                    -2.17535,
                    1.12149,
                    0.52359
                ],
                [
                    1.42846,
                    -1.77032,
                    -0.40441
                ],
                [
                    0.7763,
                    -0.46076,
                    -3.25282
                ]
            ],
            [
                [
                    -2.17543,
                    -1.12155,
                    0.52363
                ],
                [
                    -1.42846,
                    -1.77032,
                    0.40441
                ],
                [
                    0.77633,
                    0.4608,
                    -3.25264
                ]
            ],
            [
                [
                    -2.17543,
                    1.12155,
                    0.52363
                ],
                [
                    1.42808,
                    -1.77105,
                    -0.40455
                ],
                [
                    0.77633,
                    -0.4608,
                    -3.25264
                ]
            ],
            [
                [
                    -2.17535,
                    -1.12149,
                    0.52359
                ],
                [
                    -1.42808,
                    -1.77105,
                    0.40455
                ],
                [
                    0.7763,
                    0.46076,
                    -3.25282
                ]
            ]
        ]
    },
    "band_gap": 2.5984999999999996,
    "is_direct": false,
    "formula": "PbWO4"
}