{
    "mp_id": "mp-554752",
    "nelements": 4,
    "nsites": 36,
    "elements": [
        "Li",
        "O",
        "Rb",
        "Si"
    ],
    "structure": {
        "@module": "pymatgen.core.structure",
        "@class": "Structure",
        "charge": null,
        "lattice": {
            "matrix": [
                [
                    7.79082369,
                    -3.17728974,
                    0.00097086
                ],
                [
                    7.79082369,
                    3.17728974,
                    0.00097086
                ],
                [
                    -0.06459384,
                    0.0,
                    7.74398417
                ]
            ],
            "a": 8.413804419116458,
            "b": 8.413804419116458,
            "c": 7.744253559212568,
            "alpha": 90.43590522032746,
            "beta": 90.43590522032746,
            "gamma": 44.373689005990514,
            "volume": 383.3849850872821
        },
        "sites": [
            {
                "species": [
                    {
                        "element": "Rb",
                        "occu": 1
                    }
                ],
                "abc": [
                    0.75485946,
                    0.75485946,
                    0.52867555
                ],
                "xyz": [
                    11.727804743288603,
                    0.0,
                    4.095520815976715
                ],
                "label": "Rb",
                "properties": {}
            },
            {
                "species": [
                    {
                        "element": "Rb",
                        "occu": 1
                    }
                ],
                "abc": [
                    0.24514054,
                    0.24514054,
                    0.47132445
                ],
                "xyz": [
                    3.789248796711397,
                    0.0,
                    3.6504050740232854
                ],
                "label": "Rb",
                "properties": {}
            },
            {
                "species": [
                    {
                        "element": "Li",
                        "occu": 1
                    }
                ],
                "abc": [
                    0.81697869,
                    0.32584905,
                    0.6330892
                ],
                "xyz": [
                    8.862675767890632,
                    -1.5604611661818935,
                    4.903742268737621
                ],
                "label": "Li",
                "properties": {}
            },
            {
                "species": [
                    {
                        "element": "Li",
                        "occu": 1
                    }
                ],
                "abc": [
                    0.67415095,
                    0.18302131,
                    0.3669108
                ],
                "xyz": [
                    6.654377772109368,
                    -1.560461166181894,
                    2.8421836212623797
                ],
                "label": "Li",
                "properties": {}
            },
            {
                "species": [
                    {
                        "element": "Li",
                        "occu": 1
                    }
                ],
                "abc": [
                    0.32584905,
                    0.81697869,
                    0.6330892
                ],
                "xyz": [
                    8.862675767890632,
                    1.5604611661818935,
                    4.903742268737621
                ],
                "label": "Li",
                "properties": {}
            },
            {
                "species": [
                    {
                        "element": "Li",
                        "occu": 1
                    }
                ],
                "abc": [
                    0.06740049,
                    0.06740049,
                    0.29043575
                ],
                "xyz": [
                    1.031450308053436,
                    0.0,
                    2.2492607232815205
                ],
                "label": "Li",
                "properties": {}
            },
            {
                "species": [
                    {
                        "element": "Li",
                        "occu": 1
                    }
                ],
                "abc": [
                    0.44050787,
                    0.92754355,
                    0.13879084
                ],
                "xyz": [
                    10.649282378761713,
                    1.5474534690779231,
                    1.076122254302624
                ],
                "label": "Li",
                "properties": {}
            },
            {
                "species": [
                    {
                        "element": "Li",
                        "occu": 1
                    }
                ],
                "abc": [
                    0.18302131,
                    0.67415095,
                    0.3669108
                ],
                "xyz": [
                    6.654377772109368,
                    1.560461166181894,
                    2.8421836212623797
                ],
                "label": "Li",
                "properties": {}
            },
            {
                "species": [
                    {
                        "element": "Li",
                        "occu": 1
                    }
                ],
                "abc": [
                    0.93259951,
                    0.93259951,
                    0.70956425
                ],
                "xyz": [
                    14.485603231946563,
                    0.0,
                    5.49666516671848
                ],
                "label": "Li",
                "properties": {}
            },
            {
                "species": [
                    {
                        "element": "Li",
                        "occu": 1
                    }
                ],
                "abc": [
                    0.5,
                    0.5,
                    0.0
                ],
                "xyz": [
                    7.79082369,
                    0.0,
                    0.00097086
                ],
                "label": "Li",
                "properties": {}
            },
            {
                "species": [
                    {
                        "element": "Li",
                        "occu": 1
                    }
                ],
                "abc": [
                    0.92754355,
                    0.44050787,
                    0.13879084
                ],
                "xyz": [
                    10.649282378761713,
                    -1.5474534690779231,
                    1.076122254302624
                ],
                "label": "Li",
                "properties": {}
            },
            {
                "species": [
                    {
                        "element": "Li",
                        "occu": 1
                    }
                ],
                "abc": [
                    0.35592731,
                    0.35592731,
                    0.13458803
                ],
                "xyz": [
                    5.537240279656213,
                    0.0,
                    1.0429386849678584
                ],
                "label": "Li",
                "properties": {}
            },
            {
                "species": [
                    {
                        "element": "Li",
                        "occu": 1
                    }
                ],
                "abc": [
                    0.07245645,
                    0.55949213,
                    0.86120916
                ],
                "xyz": [
                    4.867771161238285,
                    1.5474534690779231,
                    6.669803635697376
                ],
                "label": "Li",
                "properties": {}
            },
            {
                "species": [
                    {
                        "element": "Li",
                        "occu": 1
                    }
                ],
                "abc": [
                    0.55949213,
                    0.07245645,
                    0.86120916
                ],
                "xyz": [
                    4.867771161238285,
                    -1.5474534690779231,
                    6.669803635697376
                ],
                "label": "Li",
                "properties": {}
            },
            {
                "species": [
                    {
                        "element": "Li",
                        "occu": 1
                    }
                ],
                "abc": [
                    0.64407269,
                    0.64407269,
                    0.86541197
                ],
                "xyz": [
                    9.979813260343787,
                    0.0,
                    6.702987205032142
                ],
                "label": "Li",
                "properties": {}
            },
            {
                "species": [
                    {
                        "element": "Li",
                        "occu": 1
                    }
                ],
                "abc": [
                    0.0,
                    0.0,
                    0.0
                ],
                "xyz": [
                    0.0,
                    0.0,
                    0.0
                ],
                "label": "Li",
                "properties": {}
            },
            {
                "species": [
                    {
                        "element": "Si",
                        "occu": 1
                    }
                ],
                "abc": [
                    0.57083713,
                    0.57083713,
                    0.29371245
                ],
                "xyz": [
                    8.875610856069912,
                    0.0,
                    2.27561296920398
                ],
                "label": "Si",
                "properties": {}
            },
            {
                "species": [
                    {
                        "element": "Si",
                        "occu": 1
                    }
                ],
                "abc": [
                    0.42916287,
                    0.42916287,
                    0.70628755
                ],
                "xyz": [
                    6.641442683930088,
                    0.0,
                    5.47031292079602
                ],
                "label": "Si",
                "properties": {}
            },
            {
                "species": [
                    {
                        "element": "Si",
                        "occu": 1
                    }
                ],
                "abc": [
                    0.14700709,
                    0.14700709,
                    0.8594982
                ],
                "xyz": [
                    2.2350943495288362,
                    0.0,
                    6.656225901550289
                ],
                "label": "Si",
                "properties": {}
            },
            {
                "species": [
                    {
                        "element": "Si",
                        "occu": 1
                    }
                ],
                "abc": [
                    0.85299291,
                    0.85299291,
                    0.1405018
                ],
                "xyz": [
                    13.281959190471163,
                    0.0,
                    1.0896999884497114
                ],
                "label": "Si",
                "properties": {}
            },
            {
                "species": [
                    {
                        "element": "O",
                        "occu": 1
                    }
                ],
                "abc": [
                    0.12892688,
                    0.12892688,
                    0.06931233
                ],
                "xyz": [
                    2.0044160324095275,
                    0.0,
                    0.5370039262072498
                ],
                "label": "O",
                "properties": {}
            },
            {
                "species": [
                    {
                        "element": "O",
                        "occu": 1
                    }
                ],
                "abc": [
                    0.18134401,
                    0.61711368,
                    0.60662278
                ],
                "xyz": [
                    6.181458991923001,
                    1.3845665014941857,
                    4.698452396114305
                ],
                "label": "O",
                "properties": {}
            },
            {
                "species": [
                    {
                        "element": "O",
                        "occu": 1
                    }
                ],
                "abc": [
                    0.05148405,
                    0.05148405,
                    0.76394666
                ],
                "xyz": [
                    0.7528600644697147,
                    0.0,
                    5.916090809373938
                ],
                "label": "O",
                "properties": {}
            },
            {
                "species": [
                    {
                        "element": "O",
                        "occu": 1
                    }
                ],
                "abc": [
                    0.5331201,
                    0.5331201,
                    0.74723857
                ],
                "xyz": [
                    8.258622400757929,
                    0.0,
                    5.787638827254009
                ],
                "label": "O",
                "properties": {}
            },
            {
                "species": [
                    {
                        "element": "O",
                        "occu": 1
                    }
                ],
                "abc": [
                    0.58567962,
                    0.02182216,
                    0.19918894
                ],
                "xyz": [
                    4.7200728808210375,
                    -1.7915385224804603,
                    1.5431057973772107
                ],
                "label": "O",
                "properties": {}
            },
            {
                "species": [
                    {
                        "element": "O",
                        "occu": 1
                    }
                ],
                "abc": [
                    0.38393937,
                    0.38393937,
                    0.89890885
                ],
                "xyz": [
                    5.924343904207867,
                    0.0,
                    6.961881407426421
                ],
                "label": "O",
                "properties": {}
            },
            {
                "species": [
                    {
                        "element": "O",
                        "occu": 1
                    }
                ],
                "abc": [
                    0.94851595,
                    0.94851595,
                    0.23605334
                ],
                "xyz": [
                    14.764193475530286,
                    0.0,
                    1.8298350806260617
                ],
                "label": "O",
                "properties": {}
            },
            {
                "species": [
                    {
                        "element": "O",
                        "occu": 1
                    }
                ],
                "abc": [
                    0.87107312,
                    0.87107312,
                    0.93068767
                ],
                "xyz": [
                    13.512637507590473,
                    0.0,
                    7.20892196379275
                ],
                "label": "O",
                "properties": {}
            },
            {
                "species": [
                    {
                        "element": "O",
                        "occu": 1
                    }
                ],
                "abc": [
                    0.97817784,
                    0.41432038,
                    0.80081106
                ],
                "xyz": [
                    10.79698065917896,
                    -1.79153852248046,
                    6.202820092622789
                ],
                "label": "O",
                "properties": {}
            },
            {
                "species": [
                    {
                        "element": "O",
                        "occu": 1
                    }
                ],
                "abc": [
                    0.38288632,
                    0.81865599,
                    0.39337722
                ],
                "xyz": [
                    9.335594548077,
                    1.3845665014941857,
                    3.047473493885694
                ],
                "label": "O",
                "properties": {}
            },
            {
                "species": [
                    {
                        "element": "O",
                        "occu": 1
                    }
                ],
                "abc": [
                    0.61606063,
                    0.61606063,
                    0.10109115
                ],
                "xyz": [
                    9.592709635792133,
                    0.0,
                    0.7840444825735791
                ],
                "label": "O",
                "properties": {}
            },
            {
                "species": [
                    {
                        "element": "O",
                        "occu": 1
                    }
                ],
                "abc": [
                    0.81865599,
                    0.38288632,
                    0.39337722
                ],
                "xyz": [
                    9.335594548077,
                    -1.3845665014941857,
                    3.047473493885694
                ],
                "label": "O",
                "properties": {}
            },
            {
                "species": [
                    {
                        "element": "O",
                        "occu": 1
                    }
                ],
                "abc": [
                    0.61711368,
                    0.18134401,
                    0.60662278
                ],
                "xyz": [
                    6.181458991923001,
                    -1.3845665014941857,
                    4.698452396114305
                ],
                "label": "O",
                "properties": {}
            },
            {
                "species": [
                    {
                        "element": "O",
                        "occu": 1
                    }
                ],
                "abc": [
                    0.41432038,
                    0.97817784,
                    0.80081106
                ],
                "xyz": [
                    10.79698065917896,
                    1.79153852248046,
                    6.202820092622789
                ],
                "label": "O",
                "properties": {}
            },
            {
                "species": [
                    {
                        "element": "O",
                        "occu": 1
                    }
                ],
                "abc": [
                    0.02182216,
                    0.58567962,
                    0.19918894
                ],
                "xyz": [
                    4.7200728808210375,
                    1.7915385224804603,
                    1.5431057973772107
                ],
                "label": "O",
                "properties": {}
            },
            {
                "species": [
                    {
                        "element": "O",
                        "occu": 1
                    }
                ],
                "abc": [
                    0.4668799,
                    0.4668799,
                    0.25276143
                ],
                "xyz": [
                    7.258431139242071,
                    0.0,
                    1.9582870627459912
                ],
                "label": "O",
                "properties": {}
            }
        ]
    },
    "spacegroup": {
        "source": "spglib",
        "symbol": "C2/m",
        "number": 12,
        "point_group": "2/m",
        "crystal_system": "monoclinic",
        "hall": "-C 2y"
    },
    "dielectric": {
        "epsilon_ionic": [
            [
                7.90754642,
                0.0,
                -0.03659214
            ],
            [
                0.0,
                4.38716313,
                1e-08
            ],
            [
                -0.03659214,
                1e-08,
                9.10278727
            ]
        ],
        "epsilon_ionic_avg": 7.132498940000001,
        "epsilon_ionic_eig": [
            7.9064272045159605,
            9.103906485484043,
            4.38716313
        ],
        "epsilon_electronic": [
            [
                2.72800252,
                0.0,
                -0.00023167
            ],
            [
                0.0,
                2.68034087,
                0.0
            ],
            [
                -0.00023197,
                0.0,
                2.73138958
            ]
        ],
        "epsilon_electronic_avg": 2.7132443233333334,
        "epsilon_electronic_eig": [
            2.7279867272245126,
            2.7314053727754875,
            2.68034087
        ]
    },
    "phonon": {
        "lowest_freq": -0.0676849127991622,
        "frequency": [
            -0.0676849127991622,
            -0.05418328907390459,
            -0.019866881558748984,
            2.002744037948381,
            2.3826991039061087,
            2.4334271069524633,
            2.533516040489957,
            2.549852468798118,
            2.86248407279492,
            2.9788828693232743,
            3.254172526810731,
            3.6695030438924743,
            3.7339815938156256,
            4.267824445608376,
            4.361338928537996,
            4.62905724991805,
            4.713599564073196,
            4.861268502782405,
            4.929867114947459,
            5.099197201575836,
            5.127530424363338,
            5.236442472800546,
            5.6022607914196625,
            5.880975495964361,
            5.919523203125453,
            6.129260515759381,
            6.233097238991476,
            6.515368559259483,
            6.754603601493753,
            6.993890515612971,
            7.265787095647346,
            7.292315788647242,
            7.3812444591307305,
            7.649869739093097,
            7.731616290714056,
            8.093671399301552,
            8.152651968258041,
            8.464861741399353,
            8.814527690286432,
            8.860933963319384,
            9.039247380212666,
            10.152569940717278,
            10.671458754847194,
            10.909603924912613,
            10.94943273868714,
            11.060537610063355,
            11.173045834988606,
            11.20244981270389,
            11.306484073900705,
            11.575171879457965,
            11.621217551502454,
            11.798652457798717,
            11.840542165171687,
            12.132446337115978,
            12.243607504918288,
            12.627513212192705,
            12.711093634338814,
            13.034377768968339,
            13.073816054292047,
            13.25572216894131,
            13.734146109990077,
            13.749056426784769,
            13.817476864230553,
            13.86317722266413,
            13.872313607630755,
            14.131452747299273,
            14.34670497556419,
            14.388681492301641,
            14.632616250572323,
            15.040086946709152,
            15.047570559371051,
            15.245216366480907,
            15.445459955065926,
            15.746780079942136,
            15.783895703766122,
            15.898282683363764,
            16.107531067965173,
            16.141101171841182,
            16.23204895960015,
            16.482025260638892,
            16.89475750639944,
            17.033344957479393,
            17.077360002759203,
            17.119508877736923,
            17.186475015379962,
            17.27885857637747,
            17.377027624766853,
            17.405209265246196,
            17.487994397309894,
            18.078181039690538,
            18.299883037132517,
            18.559563995304256,
            24.239459604963027,
            24.5106873852778,
            24.517315170743156,
            24.734053209486582,
            25.921674498996527,
            26.238150537119527,
            26.34661726771845,
            26.461677631983417,
            26.51422260583681,
            26.52450175858236,
            26.651118485901982,
            26.857447601557638,
            26.903495533584987,
            27.50435078530204,
            27.559470996175687,
            27.63065565913438
        ]
    },
    "born_effective_charge": {
        "avg_abs_trace": 1.5104662037037035,
        "tensors": [
            [
                [
                    1.28633,
                    0.0,
                    -0.02575
                ],
                [
                    -1e-05,
                    1.22624,
                    1e-05
                ],
                [
                    0.03952,
                    -0.0,
                    1.28217
                ]
            ],
            [
                [
                    1.28635,
                    0.0,
                    -0.02577
                ],
                [
                    1e-05,
                    1.22624,
                    -1e-05
                ],
                [
                    0.03952,
                    -0.0,
                    1.28219
                ]
            ],
            [
                [
                    1.00092,
                    -0.14838,
                    0.00732
                ],
                [
                    -0.12493,
                    0.92853,
                    -0.14926
                ],
                [
                    0.01527,
                    -0.10808,
                    1.02732
                ]
            ],
            [
                [
                    1.00092,
                    0.14838,
                    0.00732
                ],
                [
                    0.12493,
                    0.92853,
                    0.14926
                ],
                [
                    0.01527,
                    0.10808,
                    1.0273
                ]
            ],
            [
                [
                    1.00092,
                    0.14838,
                    0.00732
                ],
                [
                    0.12491,
                    0.92852,
                    0.14928
                ],
                [
                    0.01527,
                    0.10808,
                    1.02732
                ]
            ],
            [
                [
                    1.04344,
                    0.0,
                    0.00287
                ],
                [
                    2e-05,
                    1.14156,
                    2e-05
                ],
                [
                    -0.01973,
                    -0.0,
                    0.98009
                ]
            ],
            [
                [
                    1.02665,
                    0.02328,
                    -0.01926
                ],
                [
                    -0.01584,
                    0.92868,
                    -0.14907
                ],
                [
                    -0.01416,
                    -0.15654,
                    1.0063
                ]
            ],
            [
                [
                    1.00092,
                    -0.14838,
                    0.00732
                ],
                [
                    -0.12491,
                    0.92852,
                    -0.14928
                ],
                [
                    0.01527,
                    -0.10808,
                    1.0273
                ]
            ],
            [
                [
                    1.04345,
                    0.0,
                    0.00287
                ],
                [
                    -2e-05,
                    1.14156,
                    -2e-05
                ],
                [
                    -0.01972,
                    -0.0,
                    0.98009
                ]
            ],
            [
                [
                    0.96547,
                    0.0,
                    0.16824
                ],
                [
                    -0.0,
                    0.7786,
                    -0.0
                ],
                [
                    0.1251,
                    -0.0,
                    1.21827
                ]
            ],
            [
                [
                    1.02665,
                    -0.02328,
                    -0.01926
                ],
                [
                    0.01581,
                    0.92869,
                    0.14906
                ],
                [
                    -0.01416,
                    0.15654,
                    1.0063
                ]
            ],
            [
                [
                    0.99973,
                    0.0,
                    0.03896
                ],
                [
                    -2e-05,
                    1.11309,
                    1e-05
                ],
                [
                    0.03392,
                    -0.0,
                    1.04849
                ]
            ],
            [
                [
                    1.02665,
                    -0.02327,
                    -0.01925
                ],
                [
                    0.01584,
                    0.92868,
                    0.14907
                ],
                [
                    -0.01416,
                    0.15654,
                    1.00631
                ]
            ],
            [
                [
                    1.02665,
                    0.02327,
                    -0.01925
                ],
                [
                    -0.01581,
                    0.92869,
                    -0.14906
                ],
                [
                    -0.01416,
                    -0.15654,
                    1.00631
                ]
            ],
            [
                [
                    0.99973,
                    0.0,
                    0.03895
                ],
                [
                    2e-05,
                    1.11309,
                    -1e-05
                ],
                [
                    0.03392,
                    -0.0,
                    1.04848
                ]
            ],
            [
                [
                    1.23019,
                    0.0,
                    -0.1291
                ],
                [
                    -0.0,
                    0.8083,
                    -0.0
                ],
                [
                    -0.16483,
                    -0.0,
                    0.97132
                ]
            ],
            [
                [
                    2.59984,
                    0.0,
                    0.04324
                ],
                [
                    1e-05,
                    2.65727,
                    1e-05
                ],
                [
                    -0.01306,
                    -0.0,
                    2.67886
                ]
            ],
            [
                [
                    2.59981,
                    0.0,
                    0.04323
                ],
                [
                    -1e-05,
                    2.65727,
                    -1e-05
                ],
                [
                    -0.01302,
                    -0.0,
                    2.67885
                ]
            ],
            [
                [
                    2.62797,
                    0.0,
                    -0.02347
                ],
                [
                    6e-05,
                    2.73668,
                    -5e-05
                ],
                [
                    -0.11017,
                    -0.0,
                    2.53794
                ]
            ],
            [
                [
                    2.62798,
                    0.0,
                    -0.02343
                ],
                [
                    -6e-05,
                    2.73668,
                    5e-05
                ],
                [
                    -0.11015,
                    -0.0,
                    2.53796
                ]
            ],
            [
                [
                    -1.43014,
                    0.0,
                    0.1474
                ],
                [
                    3e-05,
                    -1.41332,
                    0.00011
                ],
                [
                    0.23318,
                    -0.0,
                    -2.1981
                ]
            ],
            [
                [
                    -1.57374,
                    0.20755,
                    -0.07792
                ],
                [
                    0.19445,
                    -1.9539,
                    0.26573
                ],
                [
                    -0.10315,
                    0.29201,
                    -1.66492
                ]
            ],
            [
                [
                    -2.09463,
                    0.0,
                    -0.28065
                ],
                [
                    0.00017,
                    -1.40964,
                    7e-05
                ],
                [
                    -0.27494,
                    -0.0,
                    -1.48131
                ]
            ],
            [
                [
                    -2.18283,
                    0.0,
                    -0.22595
                ],
                [
                    0.00027,
                    -1.35195,
                    2e-05
                ],
                [
                    -0.13856,
                    -0.0,
                    -1.48336
                ]
            ],
            [
                [
                    -1.66697,
                    0.29315,
                    0.1062
                ],
                [
                    0.26733,
                    -1.97213,
                    -0.16626
                ],
                [
                    0.09918,
                    -0.1603,
                    -1.55405
                ]
            ],
            [
                [
                    -1.52158,
                    0.0,
                    0.27098
                ],
                [
                    -0.0001,
                    -1.3561,
                    0.00012
                ],
                [
                    0.2752,
                    -0.0,
                    -2.08869
                ]
            ],
            [
                [
                    -2.09428,
                    0.0,
                    -0.28049
                ],
                [
                    -0.00017,
                    -1.40964,
                    -7e-05
                ],
                [
                    -0.27498,
                    -0.0,
                    -1.48133
                ]
            ],
            [
                [
                    -1.43007,
                    0.0,
                    0.14666
                ],
                [
                    -3e-05,
                    -1.41332,
                    -0.00011
                ],
                [
                    0.23321,
                    -0.0,
                    -2.19852
                ]
            ],
            [
                [
                    -1.6668,
                    -0.29279,
                    0.10609
                ],
                [
                    -0.26733,
                    -1.97213,
                    0.16626
                ],
                [
                    0.09922,
                    0.1604,
                    -1.55405
                ]
            ],
            [
                [
                    -1.57383,
                    -0.20779,
                    -0.07786
                ],
                [
                    -0.19445,
                    -1.9539,
                    -0.26573
                ],
                [
                    -0.10322,
                    -0.29202,
                    -1.66497
                ]
            ],
            [
                [
                    -1.52204,
                    0.0,
                    0.27187
                ],
                [
                    0.0001,
                    -1.3561,
                    -0.00012
                ],
                [
                    0.27529,
                    -0.0,
                    -2.08863
                ]
            ],
            [
                [
                    -1.57383,
                    0.20779,
                    -0.07786
                ],
                [
                    0.19449,
                    -1.95423,
                    0.26579
                ],
                [
                    -0.10322,
                    0.29202,
                    -1.66497
                ]
            ],
            [
                [
                    -1.57374,
                    -0.20755,
                    -0.07792
                ],
                [
                    -0.19449,
                    -1.95423,
                    -0.26579
                ],
                [
                    -0.10315,
                    -0.29201,
                    -1.66492
                ]
            ],
            [
                [
                    -1.6668,
                    0.29279,
                    0.10609
                ],
                [
                    0.26684,
                    -1.97146,
                    -0.1659
                ],
                [
                    0.09922,
                    -0.1604,
                    -1.55405
                ]
            ],
            [
                [
                    -1.66697,
                    -0.29315,
                    0.1062
                ],
                [
                    -0.26684,
                    -1.97146,
                    0.1659
                ],
                [
                    0.09918,
                    0.1603,
                    -1.55405
                ]
            ],
            [
                [
                    -2.18231,
                    0.0,
                    -0.22593
                ],
                [
                    -0.00027,
                    -1.35195,
                    -2e-05
                ],
                [
                    -0.13821,
                    -0.0,
                    -1.48325
                ]
            ]
        ]
    },
    "band_gap": 4.8558,
    "is_direct": false,
    "formula": "RbLi7(SiO4)2"
}