{
    "mp_id": "mp-505187",
    "nelements": 3,
    "nsites": 26,
    "elements": [
        "K",
        "O",
        "Pb"
    ],
    "structure": {
        "@module": "pymatgen.core.structure",
        "@class": "Structure",
        "charge": null,
        "lattice": {
            "matrix": [
                [
                    6.45742366,
                    -0.00107331,
                    -0.00072838
                ],
                [
                    0.28276394,
                    7.64443161,
                    -0.0001569
                ],
                [
                    1.20892519,
                    2.36742915,
                    12.24910852
                ]
            ],
            "a": 6.457423790278874,
            "b": 7.649659476757716,
            "c": 12.534228353992233,
            "alpha": 78.9133563760547,
            "beta": 84.4733758380314,
            "gamma": 87.89114497944534,
            "volume": 604.6691896066843
        },
        "sites": [
            {
                "species": [
                    {
                        "element": "K",
                        "occu": 1
                    }
                ],
                "abc": [
                    0.4317846,
                    0.60921167,
                    0.36596727
                ],
                "xyz": [
                    3.402906235585347,
                    5.523015091543782,
                    4.48236271642017
                ],
                "label": "K",
                "properties": {}
            },
            {
                "species": [
                    {
                        "element": "K",
                        "occu": 1
                    }
                ],
                "abc": [
                    0.5682154,
                    0.39078833,
                    0.63403273
                ],
                "xyz": [
                    4.5462065544146535,
                    4.487772358456217,
                    7.765860523579831
                ],
                "label": "K",
                "properties": {}
            },
            {
                "species": [
                    {
                        "element": "K",
                        "occu": 1
                    }
                ],
                "abc": [
                    0.9217896,
                    0.41035172,
                    0.38318257
                ],
                "xyz": [
                    6.531657702956851,
                    4.043073879580208,
                    4.692909085608781
                ],
                "label": "K",
                "properties": {}
            },
            {
                "species": [
                    {
                        "element": "K",
                        "occu": 1
                    }
                ],
                "abc": [
                    0.0782104,
                    0.58964828,
                    0.61681743
                ],
                "xyz": [
                    1.417455087043149,
                    5.967713570419791,
                    7.555314154391219
                ],
                "label": "K",
                "properties": {}
            },
            {
                "species": [
                    {
                        "element": "K",
                        "occu": 1
                    }
                ],
                "abc": [
                    0.31493465,
                    0.9500153,
                    0.12213832
                ],
                "xyz": [
                    2.449952621264382,
                    7.551142785894469,
                    1.4957070866295494
                ],
                "label": "K",
                "properties": {}
            },
            {
                "species": [
                    {
                        "element": "K",
                        "occu": 1
                    }
                ],
                "abc": [
                    0.68506535,
                    0.0499847,
                    0.87786168
                ],
                "xyz": [
                    5.499160168735617,
                    2.4596446641055305,
                    10.75251615337045
                ],
                "label": "K",
                "properties": {}
            },
            {
                "species": [
                    {
                        "element": "K",
                        "occu": 1
                    }
                ],
                "abc": [
                    0.30651533,
                    0.48779559,
                    0.12109953
                ],
                "xyz": [
                    2.263630619351893,
                    4.015285598819057,
                    1.4830614899268593
                ],
                "label": "K",
                "properties": {}
            },
            {
                "species": [
                    {
                        "element": "K",
                        "occu": 1
                    }
                ],
                "abc": [
                    0.69348467,
                    0.51220441,
                    0.87890047
                ],
                "xyz": [
                    5.685482170648107,
                    5.9955018511809435,
                    10.765161750073142
                ],
                "label": "K",
                "properties": {}
            },
            {
                "species": [
                    {
                        "element": "K",
                        "occu": 1
                    }
                ],
                "abc": [
                    0.77820808,
                    0.70035356,
                    0.12665933
                ],
                "xyz": [
                    5.376375654799321,
                    5.652826623687156,
                    1.550787161565617
                ],
                "label": "K",
                "properties": {}
            },
            {
                "species": [
                    {
                        "element": "K",
                        "occu": 1
                    }
                ],
                "abc": [
                    0.22179192,
                    0.29964644,
                    0.87334067
                ],
                "xyz": [
                    2.5727371352006783,
                    4.357960826312844,
                    10.697436078434382
                ],
                "label": "K",
                "properties": {}
            },
            {
                "species": [
                    {
                        "element": "K",
                        "occu": 1
                    }
                ],
                "abc": [
                    0.40788534,
                    0.13467991,
                    0.37471166
                ],
                "xyz": [
                    3.1249694318343053,
                    1.9162168805505688,
                    4.589565560247515
                ],
                "label": "K",
                "properties": {}
            },
            {
                "species": [
                    {
                        "element": "K",
                        "occu": 1
                    }
                ],
                "abc": [
                    0.59211466,
                    0.86532009,
                    0.62528834
                ],
                "xyz": [
                    4.824143358165695,
                    8.09457056944943,
                    7.658657679752485
                ],
                "label": "K",
                "properties": {}
            },
            {
                "species": [
                    {
                        "element": "Pb",
                        "occu": 1
                    }
                ],
                "abc": [
                    0.91047312,
                    0.87187693,
                    0.35387313
                ],
                "xyz": [
                    6.553652163725068,
                    7.501795907181069,
                    4.333830403780604
                ],
                "label": "Pb",
                "properties": {}
            },
            {
                "species": [
                    {
                        "element": "Pb",
                        "occu": 1
                    }
                ],
                "abc": [
                    0.08952688,
                    0.12812307,
                    0.64612687
                ],
                "xyz": [
                    1.3954606262749318,
                    2.5089915428189307,
                    7.914392836219395
                ],
                "label": "Pb",
                "properties": {}
            },
            {
                "species": [
                    {
                        "element": "Pb",
                        "occu": 1
                    }
                ],
                "abc": [
                    0.75489138,
                    0.2091707,
                    0.13870239
                ],
                "xyz": [
                    5.101480202390813,
                    1.9265489597594274,
                    1.6983979604271686
                ],
                "label": "Pb",
                "properties": {}
            },
            {
                "species": [
                    {
                        "element": "Pb",
                        "occu": 1
                    }
                ],
                "abc": [
                    0.24510862,
                    0.7908293,
                    0.86129761
                ],
                "xyz": [
                    2.847632587609187,
                    8.084238490240573,
                    10.549825279572831
                ],
                "label": "Pb",
                "properties": {}
            },
            {
                "species": [
                    {
                        "element": "O",
                        "occu": 1
                    }
                ],
                "abc": [
                    0.644622,
                    0.94804575,
                    0.24526191
                ],
                "xyz": [
                    4.727173807273288,
                    7.827219214906014,
                    3.0036214732619384
                ],
                "label": "O",
                "properties": {}
            },
            {
                "species": [
                    {
                        "element": "O",
                        "occu": 1
                    }
                ],
                "abc": [
                    0.355378,
                    0.05195425,
                    0.75473809
                ],
                "xyz": [
                    3.221938982726712,
                    2.1835682350939862,
                    9.244601766738061
                ],
                "label": "O",
                "properties": {}
            },
            {
                "species": [
                    {
                        "element": "O",
                        "occu": 1
                    }
                ],
                "abc": [
                    0.51540534,
                    0.24231774,
                    0.02573255
                ],
                "xyz": [
                    3.427818083798575,
                    1.9127481905881185,
                    0.3147873668513708
                ],
                "label": "O",
                "properties": {}
            },
            {
                "species": [
                    {
                        "element": "O",
                        "occu": 1
                    }
                ],
                "abc": [
                    0.48459466,
                    0.75768226,
                    0.97426745
                ],
                "xyz": [
                    4.5212947062014255,
                    8.098039259411882,
                    11.93343587314863
                ],
                "label": "O",
                "properties": {}
            },
            {
                "species": [
                    {
                        "element": "O",
                        "occu": 1
                    }
                ],
                "abc": [
                    0.74701756,
                    0.67423469,
                    0.47850188
                ],
                "xyz": [
                    5.592931100002905,
                    6.286158494419029,
                    5.860571555070804
                ],
                "label": "O",
                "properties": {}
            },
            {
                "species": [
                    {
                        "element": "O",
                        "occu": 1
                    }
                ],
                "abc": [
                    0.25298244,
                    0.32576531,
                    0.52149812
                ],
                "xyz": [
                    2.3561816899970944,
                    3.7246289555809704,
                    6.387651684929196
                ],
                "label": "O",
                "properties": {}
            },
            {
                "species": [
                    {
                        "element": "O",
                        "occu": 1
                    }
                ],
                "abc": [
                    0.61742735,
                    0.38517224,
                    0.24420578
                ],
                "xyz": [
                    4.391129317367725,
                    3.521900037971965,
                    2.9907929451735966
                ],
                "label": "O",
                "properties": {}
            },
            {
                "species": [
                    {
                        "element": "O",
                        "occu": 1
                    }
                ],
                "abc": [
                    0.38257265,
                    0.61482776,
                    0.75579422
                ],
                "xyz": [
                    3.5579834726322748,
                    6.488887412028035,
                    9.257430294826403
                ],
                "label": "O",
                "properties": {}
            },
            {
                "species": [
                    {
                        "element": "O",
                        "occu": 1
                    }
                ],
                "abc": [
                    0.08162558,
                    0.69599205,
                    0.2573503
                ],
                "xyz": [
                    1.0350096661439567,
                    5.929634619758676,
                    3.15214309676195
                ],
                "label": "O",
                "properties": {}
            },
            {
                "species": [
                    {
                        "element": "O",
                        "occu": 1
                    }
                ],
                "abc": [
                    0.91837442,
                    0.30400795,
                    0.7426497
                ],
                "xyz": [
                    6.9141031238560435,
                    4.081152830241324,
                    9.09608014323805
                ],
                "label": "O",
                "properties": {}
            }
        ]
    },
    "spacegroup": {
        "source": "spglib",
        "symbol": "P-1",
        "number": 2,
        "point_group": "-1",
        "crystal_system": "triclinic",
        "hall": "-P 1"
    },
    "dielectric": {
        "epsilon_ionic": [
            [
                4.53265171,
                -0.2419356,
                0.36495636
            ],
            [
                -0.2419356,
                4.47466707,
                -1.05168125
            ],
            [
                0.36495636,
                -1.05168125,
                5.25226112
            ]
        ],
        "epsilon_ionic_avg": 4.753193299999999,
        "epsilon_ionic_eig": [
            6.106473013895388,
            4.411033657955103,
            3.7420732281495046
        ],
        "epsilon_electronic": [
            [
                3.52346801,
                -0.08218388,
                0.01383578
            ],
            [
                -0.08218254,
                3.68217385,
                -0.08284322
            ],
            [
                0.01383869,
                -0.08284296,
                3.73158993
            ]
        ],
        "epsilon_electronic_avg": 3.6457439299999987,
        "epsilon_electronic_eig": [
            3.4867938922118835,
            3.806973021889892,
            3.6434648758982213
        ]
    },
    "phonon": {
        "lowest_freq": -0.06094134636087816,
        "frequency": [
            -0.06094134636087816,
            -0.035327704900007036,
            -0.020126400912198843,
            1.157813056761027,
            1.3200419443222235,
            1.584489591814532,
            1.5915230087751449,
            1.6479470149463242,
            1.6643944589808686,
            1.985371559180158,
            2.070480595963895,
            2.1133281985771206,
            2.1401596575657105,
            2.229301306167739,
            2.2931919727876937,
            2.447632130140351,
            2.52405897572541,
            2.6556127994339858,
            2.686319775984465,
            2.9852570513961747,
            2.9972647935108823,
            3.0521602560408,
            3.1486496389293976,
            3.2831523510011626,
            3.3190084162143676,
            3.3306694913724604,
            3.3633833117795904,
            3.445730522399171,
            3.575627500945645,
            3.6438801808085746,
            3.6925250235735025,
            3.847057415412473,
            3.9805961544490778,
            4.021040856783175,
            4.15270623840801,
            4.2789973332268465,
            4.333336317325944,
            4.431196697633047,
            4.487021964344864,
            4.535482088218325,
            4.682029214749247,
            4.768650789245873,
            4.938617740295047,
            5.02496107387975,
            5.099137002221916,
            5.110538140394064,
            5.371231627458155,
            5.529168937477448,
            6.269859812937565,
            6.432169126175151,
            6.609817249697398,
            6.617763609718884,
            6.854076719795816,
            6.902936340420225,
            7.2888808238865295,
            7.324719469389329,
            7.567009874281619,
            7.633812345238961,
            7.727693825548947,
            7.8039543262855915,
            8.683420374483603,
            9.046608793413949,
            9.158074897480093,
            9.22721217576459,
            9.279710196564974,
            9.556137735115424,
            10.756651005589523,
            10.807454182718306,
            11.079617068670666,
            11.275861038763427,
            12.65149761508624,
            12.699055464389435,
            13.768517987484673,
            13.872617071518443,
            14.400726209819071,
            14.53125704868459,
            14.747443939905299,
            15.048190351204392
        ]
    },
    "born_effective_charge": {
        "avg_abs_trace": 1.5375088461538462,
        "tensors": [
            [
                [
                    1.32871,
                    0.06806,
                    0.02882
                ],
                [
                    0.06428,
                    1.22389,
                    -0.04445
                ],
                [
                    -0.12154,
                    -0.13796,
                    1.05815
                ]
            ],
            [
                [
                    1.32875,
                    0.0681,
                    0.02887
                ],
                [
                    0.06417,
                    1.22398,
                    -0.04449
                ],
                [
                    -0.12151,
                    -0.13799,
                    1.05805
                ]
            ],
            [
                [
                    0.96993,
                    0.00722,
                    0.24962
                ],
                [
                    0.0337,
                    1.35907,
                    -0.02057
                ],
                [
                    0.22895,
                    -0.06485,
                    1.13245
                ]
            ],
            [
                [
                    0.96993,
                    0.0073,
                    0.24965
                ],
                [
                    0.03376,
                    1.35887,
                    -0.02058
                ],
                [
                    0.22901,
                    -0.06494,
                    1.13253
                ]
            ],
            [
                [
                    1.22445,
                    0.17982,
                    -0.17128
                ],
                [
                    0.11551,
                    0.98626,
                    0.03407
                ],
                [
                    -0.10027,
                    0.15303,
                    1.16219
                ]
            ],
            [
                [
                    1.22448,
                    0.17979,
                    -0.17122
                ],
                [
                    0.11565,
                    0.98615,
                    0.03397
                ],
                [
                    -0.10029,
                    0.15304,
                    1.16225
                ]
            ],
            [
                [
                    1.13476,
                    -0.19663,
                    -0.10053
                ],
                [
                    -0.2232,
                    1.25289,
                    -0.07355
                ],
                [
                    -0.05206,
                    -0.14164,
                    1.12828
                ]
            ],
            [
                [
                    1.1348,
                    -0.19657,
                    -0.10058
                ],
                [
                    -0.22319,
                    1.25289,
                    -0.07358
                ],
                [
                    -0.05208,
                    -0.14153,
                    1.12829
                ]
            ],
            [
                [
                    1.05368,
                    0.0978,
                    0.1294
                ],
                [
                    0.12862,
                    1.33368,
                    0.07102
                ],
                [
                    0.23009,
                    0.06091,
                    1.17709
                ]
            ],
            [
                [
                    1.05357,
                    0.09781,
                    0.12937
                ],
                [
                    0.12858,
                    1.33367,
                    0.07111
                ],
                [
                    0.23012,
                    0.06101,
                    1.17702
                ]
            ],
            [
                [
                    1.20406,
                    -0.07813,
                    -0.29965
                ],
                [
                    -0.1118,
                    0.98494,
                    0.10198
                ],
                [
                    -0.33985,
                    0.15376,
                    1.28161
                ]
            ],
            [
                [
                    1.20406,
                    -0.07815,
                    -0.29963
                ],
                [
                    -0.11185,
                    0.98495,
                    0.10196
                ],
                [
                    -0.33986,
                    0.15377,
                    1.28161
                ]
            ],
            [
                [
                    1.26856,
                    -0.23549,
                    -0.08844
                ],
                [
                    -0.48229,
                    1.43551,
                    -0.32356
                ],
                [
                    0.07836,
                    -0.19335,
                    1.82006
                ]
            ],
            [
                [
                    1.26852,
                    -0.23529,
                    -0.08856
                ],
                [
                    -0.48232,
                    1.43565,
                    -0.32366
                ],
                [
                    0.07808,
                    -0.19368,
                    1.81995
                ]
            ],
            [
                [
                    1.06966,
                    -0.40489,
                    0.46509
                ],
                [
                    -0.11656,
                    1.67575,
                    -0.10383
                ],
                [
                    0.29691,
                    -0.16385,
                    1.71602
                ]
            ],
            [
                [
                    1.06949,
                    -0.40482,
                    0.46511
                ],
                [
                    -0.11676,
                    1.67578,
                    -0.10398
                ],
                [
                    0.29689,
                    -0.16393,
                    1.71595
                ]
            ],
            [
                [
                    -2.00858,
                    0.05794,
                    -0.62905
                ],
                [
                    -0.01452,
                    -2.04593,
                    0.95008
                ],
                [
                    -0.46922,
                    0.60294,
                    -2.09503
                ]
            ],
            [
                [
                    -2.00884,
                    0.05775,
                    -0.62894
                ],
                [
                    -0.01488,
                    -2.04575,
                    0.95001
                ],
                [
                    -0.46901,
                    0.60266,
                    -2.09442
                ]
            ],
            [
                [
                    -2.25414,
                    0.03973,
                    -0.53063
                ],
                [
                    0.07693,
                    -1.4844,
                    0.03971
                ],
                [
                    -0.93646,
                    0.02051,
                    -2.25158
                ]
            ],
            [
                [
                    -2.25429,
                    0.03964,
                    -0.53054
                ],
                [
                    0.07707,
                    -1.48471,
                    0.03968
                ],
                [
                    -0.93681,
                    0.02037,
                    -2.25174
                ]
            ],
            [
                [
                    -1.60095,
                    -0.33359,
                    0.30175
                ],
                [
                    -0.30647,
                    -1.98949,
                    0.41873
                ],
                [
                    0.57626,
                    0.75386,
                    -2.39563
                ]
            ],
            [
                [
                    -1.6009,
                    -0.33382,
                    0.30189
                ],
                [
                    -0.30708,
                    -1.98971,
                    0.41914
                ],
                [
                    0.57661,
                    0.75403,
                    -2.39579
                ]
            ],
            [
                [
                    -1.57467,
                    0.27549,
                    0.19813
                ],
                [
                    0.47045,
                    -2.3966,
                    -0.58435
                ],
                [
                    0.32225,
                    -0.45504,
                    -1.87588
                ]
            ],
            [
                [
                    -1.57456,
                    0.27544,
                    0.19824
                ],
                [
                    0.4706,
                    -2.39677,
                    -0.58452
                ],
                [
                    0.32221,
                    -0.4548,
                    -1.8757
                ]
            ],
            [
                [
                    -1.81529,
                    0.52273,
                    0.44662
                ],
                [
                    0.36585,
                    -2.33522,
                    -0.46533
                ],
                [
                    0.28668,
                    -0.58836,
                    -1.85782
                ]
            ],
            [
                [
                    -1.81521,
                    0.52279,
                    0.44652
                ],
                [
                    0.36575,
                    -2.33535,
                    -0.46501
                ],
                [
                    0.28655,
                    -0.58801,
                    -1.8579
                ]
            ]
        ]
    },
    "band_gap": 2.1266,
    "is_direct": false,
    "formula": "K6Pb2O5"
}