{
    "mp_id": "mp-5488",
    "nelements": 3,
    "nsites": 8,
    "elements": [
        "In",
        "Li",
        "O"
    ],
    "structure": {
        "@module": "pymatgen.core.structure",
        "@class": "Structure",
        "charge": null,
        "lattice": {
            "matrix": [
                [
                    -2.19155414,
                    2.19155414,
                    4.62660589
                ],
                [
                    2.19155414,
                    -2.19155414,
                    4.62660589
                ],
                [
                    2.19155414,
                    2.19155414,
                    -4.62660589
                ]
            ],
            "a": 5.568779144344385,
            "b": 5.568779144344385,
            "c": 5.568779144344385,
            "alpha": 133.64972672202737,
            "beta": 133.64972672202737,
            "gamma": 67.6356167155267,
            "volume": 88.88467842585578
        },
        "sites": [
            {
                "species": [
                    {
                        "element": "Li",
                        "occu": 1
                    }
                ],
                "abc": [
                    0.5,
                    0.5,
                    0.0
                ],
                "xyz": [
                    0.0,
                    0.0,
                    4.62660589
                ],
                "label": "Li",
                "properties": {}
            },
            {
                "species": [
                    {
                        "element": "Li",
                        "occu": 1
                    }
                ],
                "abc": [
                    0.25,
                    0.75,
                    0.5
                ],
                "xyz": [
                    2.19155414,
                    0.0,
                    2.313302945
                ],
                "label": "Li",
                "properties": {}
            },
            {
                "species": [
                    {
                        "element": "In",
                        "occu": 1
                    }
                ],
                "abc": [
                    0.0,
                    0.0,
                    0.0
                ],
                "xyz": [
                    0.0,
                    0.0,
                    0.0
                ],
                "label": "In",
                "properties": {}
            },
            {
                "species": [
                    {
                        "element": "In",
                        "occu": 1
                    }
                ],
                "abc": [
                    0.75,
                    0.25,
                    0.5
                ],
                "xyz": [
                    0.0,
                    2.19155414,
                    2.313302945
                ],
                "label": "In",
                "properties": {}
            },
            {
                "species": [
                    {
                        "element": "O",
                        "occu": 1
                    }
                ],
                "abc": [
                    0.98729725,
                    0.48729725,
                    0.5
                ],
                "xyz": [
                    0.0,
                    2.19155414,
                    4.509064654061605
                ],
                "label": "O",
                "properties": {}
            },
            {
                "species": [
                    {
                        "element": "O",
                        "occu": 1
                    }
                ],
                "abc": [
                    0.76270275,
                    0.76270275,
                    0.0
                ],
                "xyz": [
                    0.0,
                    0.0,
                    7.057450070938396
                ],
                "label": "O",
                "properties": {}
            },
            {
                "species": [
                    {
                        "element": "O",
                        "occu": 1
                    }
                ],
                "abc": [
                    0.51270275,
                    0.01270275,
                    0.5
                ],
                "xyz": [
                    0.0,
                    2.19155414,
                    0.11754123593839516
                ],
                "label": "O",
                "properties": {}
            },
            {
                "species": [
                    {
                        "element": "O",
                        "occu": 1
                    }
                ],
                "abc": [
                    0.23729725,
                    0.23729725,
                    0.0
                ],
                "xyz": [
                    0.0,
                    0.0,
                    2.195761709061605
                ],
                "label": "O",
                "properties": {}
            }
        ]
    },
    "spacegroup": {
        "source": "spglib",
        "symbol": "I4_1/amd",
        "number": 141,
        "point_group": "4/mmm",
        "crystal_system": "tetragonal",
        "hall": "I 4bw 2bw -1bw"
    },
    "dielectric": {
        "epsilon_ionic": [
            [
                15.1967562,
                0.0,
                0.0
            ],
            [
                0.0,
                15.19670492,
                0.0
            ],
            [
                0.0,
                0.0,
                21.40331164
            ]
        ],
        "epsilon_ionic_avg": 17.265590919999998,
        "epsilon_ionic_eig": [
            15.1967562,
            15.19670492,
            21.40331164
        ],
        "epsilon_electronic": [
            [
                4.29610618,
                0.0,
                0.0
            ],
            [
                0.0,
                4.29610618,
                0.0
            ],
            [
                0.0,
                -0.0,
                4.27725321
            ]
        ],
        "epsilon_electronic_avg": 4.289821856666666,
        "epsilon_electronic_eig": [
            4.29610618,
            4.29610618,
            4.27725321
        ]
    },
    "phonon": {
        "lowest_freq": -0.027226041987812862,
        "frequency": [
            -0.027226041987812862,
            -0.002760711996095506,
            -0.0027607119916691096,
            3.8304980549315744,
            4.215205270112284,
            4.215205270112284,
            4.465176155645924,
            5.731251817710383,
            5.731251817710383,
            5.762880623637874,
            5.762880623637874,
            8.029372192045882,
            9.30955779462124,
            9.30955779462124,
            9.941315017968968,
            9.941315017968968,
            10.95381025655425,
            11.856575041837038,
            12.652388196030458,
            14.9533427904502,
            15.679922592672957,
            15.679922592672957,
            17.080636487438706,
            17.080636487438706
        ]
    },
    "born_effective_charge": {
        "avg_abs_trace": 2.2053175,
        "tensors": [
            [
                [
                    1.05358,
                    0.0,
                    -1e-05
                ],
                [
                    -0.0,
                    1.05357,
                    -1e-05
                ],
                [
                    0.0,
                    0.0,
                    1.17186
                ]
            ],
            [
                [
                    1.05358,
                    0.0,
                    1e-05
                ],
                [
                    -0.0,
                    1.05357,
                    1e-05
                ],
                [
                    0.0,
                    0.0,
                    1.17186
                ]
            ],
            [
                [
                    3.44493,
                    0.0,
                    4e-05
                ],
                [
                    -0.0,
                    3.44493,
                    5e-05
                ],
                [
                    0.0,
                    0.0,
                    3.06303
                ]
            ],
            [
                [
                    3.44493,
                    0.0,
                    -4e-05
                ],
                [
                    -0.0,
                    3.44493,
                    -5e-05
                ],
                [
                    0.0,
                    0.0,
                    3.06303
                ]
            ],
            [
                [
                    -2.83551,
                    -0.0,
                    0.0
                ],
                [
                    -0.0,
                    -1.66299,
                    -7e-05
                ],
                [
                    0.0,
                    -0.0,
                    -2.11748
                ]
            ],
            [
                [
                    -2.83551,
                    -0.0,
                    -0.0
                ],
                [
                    -0.0,
                    -1.66299,
                    7e-05
                ],
                [
                    -0.0,
                    0.0,
                    -2.11742
                ]
            ],
            [
                [
                    -1.66299,
                    -0.0,
                    4e-05
                ],
                [
                    0.0,
                    -2.83552,
                    9e-05
                ],
                [
                    0.0,
                    -0.0,
                    -2.11742
                ]
            ],
            [
                [
                    -1.66299,
                    0.0,
                    -4e-05
                ],
                [
                    0.0,
                    -2.83552,
                    -9e-05
                ],
                [
                    -0.0,
                    0.0,
                    -2.11748
                ]
            ]
        ]
    },
    "band_gap": 1.9286999999999996,
    "is_direct": false,
    "formula": "LiInO2"
}