{
    "mp_id": "mp-557713",
    "nelements": 4,
    "nsites": 20,
    "elements": [
        "Ba",
        "La",
        "O",
        "Ta"
    ],
    "structure": {
        "@module": "pymatgen.core.structure",
        "@class": "Structure",
        "charge": null,
        "lattice": {
            "matrix": [
                [
                    6.14794142,
                    0.0,
                    0.00132205
                ],
                [
                    0.0,
                    6.07854218,
                    0.0
                ],
                [
                    -6.04851132,
                    0.0,
                    8.5929352
                ]
            ],
            "a": 6.147941562146457,
            "b": 6.07854218,
            "c": 10.508236033681731,
            "alpha": 90.0,
            "beta": 125.12914490430715,
            "gamma": 90.0,
            "volume": 321.17107408336125
        },
        "sites": [
            {
                "species": [
                    {
                        "element": "Ba",
                        "occu": 1
                    }
                ],
                "abc": [
                    0.25886673,
                    0.50933437,
                    0.25196143
                ],
                "xyz": [
                    0.06750593006856898,
                    3.096010451768727,
                    2.1654304756497322
                ],
                "label": "Ba",
                "properties": {}
            },
            {
                "species": [
                    {
                        "element": "Ba",
                        "occu": 1
                    }
                ],
                "abc": [
                    0.25886673,
                    0.99066563,
                    0.75196143
                ],
                "xyz": [
                    -2.956749729931432,
                    6.021802818231274,
                    6.461898075649732
                ],
                "label": "Ba",
                "properties": {}
            },
            {
                "species": [
                    {
                        "element": "Ba",
                        "occu": 1
                    }
                ],
                "abc": [
                    0.74113327,
                    0.00933437,
                    0.24803857
                ],
                "xyz": [
                    3.0561798299314304,
                    0.056739361768726605,
                    2.1323591743502672
                ],
                "label": "Ba",
                "properties": {}
            },
            {
                "species": [
                    {
                        "element": "Ba",
                        "occu": 1
                    }
                ],
                "abc": [
                    0.74113327,
                    0.49066563,
                    0.74803857
                ],
                "xyz": [
                    0.03192416993143077,
                    2.9825317282312738,
                    6.428826774350267
                ],
                "label": "Ba",
                "properties": {}
            },
            {
                "species": [
                    {
                        "element": "La",
                        "occu": 1
                    }
                ],
                "abc": [
                    0.0,
                    0.0,
                    0.0
                ],
                "xyz": [
                    0.0,
                    0.0,
                    0.0
                ],
                "label": "La",
                "properties": {}
            },
            {
                "species": [
                    {
                        "element": "La",
                        "occu": 1
                    }
                ],
                "abc": [
                    0.0,
                    0.5,
                    0.5
                ],
                "xyz": [
                    -3.02425566,
                    3.03927109,
                    4.2964676
                ],
                "label": "La",
                "properties": {}
            },
            {
                "species": [
                    {
                        "element": "Ta",
                        "occu": 1
                    }
                ],
                "abc": [
                    0.5,
                    0.5,
                    0.0
                ],
                "xyz": [
                    3.07397071,
                    3.03927109,
                    0.000661025
                ],
                "label": "Ta",
                "properties": {}
            },
            {
                "species": [
                    {
                        "element": "Ta",
                        "occu": 1
                    }
                ],
                "abc": [
                    0.5,
                    0.0,
                    0.5
                ],
                "xyz": [
                    0.049715050000000094,
                    0.0,
                    4.297128625
                ],
                "label": "Ta",
                "properties": {}
            },
            {
                "species": [
                    {
                        "element": "O",
                        "occu": 1
                    }
                ],
                "abc": [
                    0.20132647,
                    0.99392087,
                    0.27199655
                ],
                "xyz": [
                    -0.4074308678205585,
                    6.041589931877296,
                    2.3375148924332234
                ],
                "label": "O",
                "properties": {}
            },
            {
                "species": [
                    {
                        "element": "O",
                        "occu": 1
                    }
                ],
                "abc": [
                    0.32337799,
                    0.74328179,
                    0.03934203
                ],
                "xyz": [
                    1.7501482252305662,
                    4.518069712140902,
                    0.3384910362981355
                ],
                "label": "O",
                "properties": {}
            },
            {
                "species": [
                    {
                        "element": "O",
                        "occu": 1
                    }
                ],
                "abc": [
                    0.30135273,
                    0.27834428,
                    0.03865821
                ],
                "xyz": [
                    1.6188743100011396,
                    1.6919274465417304,
                    0.3325858968546885
                ],
                "label": "O",
                "properties": {}
            },
            {
                "species": [
                    {
                        "element": "O",
                        "occu": 1
                    }
                ],
                "abc": [
                    0.67662201,
                    0.24328179,
                    0.46065797
                ],
                "xyz": [
                    1.3735375347694339,
                    1.4787986221409022,
                    3.9592986137018644
                ],
                "label": "O",
                "properties": {}
            },
            {
                "species": [
                    {
                        "element": "O",
                        "occu": 1
                    }
                ],
                "abc": [
                    0.69864727,
                    0.77834428,
                    0.46134179
                ],
                "xyz": [
                    1.5048114499988618,
                    4.731198536541731,
                    3.9652037531453113
                ],
                "label": "O",
                "properties": {}
            },
            {
                "species": [
                    {
                        "element": "O",
                        "occu": 1
                    }
                ],
                "abc": [
                    0.30135273,
                    0.22165572,
                    0.53865821
                ],
                "xyz": [
                    -1.405381349998861,
                    1.3473436434582697,
                    4.629053496854688
                ],
                "label": "O",
                "properties": {}
            },
            {
                "species": [
                    {
                        "element": "O",
                        "occu": 1
                    }
                ],
                "abc": [
                    0.79867353,
                    0.00607913,
                    0.72800345
                ],
                "xyz": [
                    0.5068609678205585,
                    0.0369522481227034,
                    6.256742357566776
                ],
                "label": "O",
                "properties": {}
            },
            {
                "species": [
                    {
                        "element": "O",
                        "occu": 1
                    }
                ],
                "abc": [
                    0.67662201,
                    0.25671821,
                    0.96065797
                ],
                "xyz": [
                    -1.6507181252305658,
                    1.560472467859098,
                    8.255766213701863
                ],
                "label": "O",
                "properties": {}
            },
            {
                "species": [
                    {
                        "element": "O",
                        "occu": 1
                    }
                ],
                "abc": [
                    0.32337799,
                    0.75671821,
                    0.53934203
                ],
                "xyz": [
                    -1.2741074347694339,
                    4.599743557859098,
                    4.634958636298135
                ],
                "label": "O",
                "properties": {}
            },
            {
                "species": [
                    {
                        "element": "O",
                        "occu": 1
                    }
                ],
                "abc": [
                    0.20132647,
                    0.50607913,
                    0.77199655
                ],
                "xyz": [
                    -3.431686527820559,
                    3.0762233381227038,
                    6.633982492433223
                ],
                "label": "O",
                "properties": {}
            },
            {
                "species": [
                    {
                        "element": "O",
                        "occu": 1
                    }
                ],
                "abc": [
                    0.69864727,
                    0.72165572,
                    0.96134179
                ],
                "xyz": [
                    -1.5194442100011383,
                    4.38661473345827,
                    8.26167135314531
                ],
                "label": "O",
                "properties": {}
            },
            {
                "species": [
                    {
                        "element": "O",
                        "occu": 1
                    }
                ],
                "abc": [
                    0.79867353,
                    0.49392087,
                    0.22800345
                ],
                "xyz": [
                    3.5311166278205586,
                    3.002318841877297,
                    1.9602747575667763
                ],
                "label": "O",
                "properties": {}
            }
        ]
    },
    "spacegroup": {
        "source": "spglib",
        "symbol": "P2_1/c",
        "number": 14,
        "point_group": "2/m",
        "crystal_system": "monoclinic",
        "hall": "-P 2ybc"
    },
    "dielectric": {
        "epsilon_ionic": [
            [
                20.16291185,
                -2e-08,
                -0.7674063
            ],
            [
                -2e-08,
                31.06682999,
                0.0
            ],
            [
                -0.7674063,
                0.0,
                24.3585183
            ]
        ],
        "epsilon_ionic_avg": 25.19608671333333,
        "epsilon_ionic_eig": [
            20.026953494145832,
            24.49447665585415,
            31.066829990000006
        ],
        "epsilon_electronic": [
            [
                4.67734059,
                0.0,
                0.01472756
            ],
            [
                0.0,
                4.60071032,
                0.0
            ],
            [
                0.01472841,
                0.0,
                4.59488454
            ]
        ],
        "epsilon_electronic_avg": 4.624311816666666,
        "epsilon_electronic_eig": [
            4.679892281620602,
            4.592332848379398,
            4.60071032
        ]
    },
    "phonon": {
        "lowest_freq": -0.030926309678398232,
        "frequency": [
            -0.030926309678398232,
            -0.026125100744711457,
            -0.017430400104154163,
            0.6551089381192509,
            1.7487268434798175,
            1.9111902746422889,
            1.9844256269414986,
            2.029222285661766,
            2.486035318908364,
            2.628648240258963,
            2.7026844132950196,
            2.751507487473418,
            2.915280421894053,
            2.960988318313801,
            3.100488826641811,
            3.1381152416629496,
            3.216589713929579,
            3.2353867624834907,
            3.401146418318741,
            3.6202145693601397,
            3.6698713936090295,
            4.503813048066415,
            4.59903763460277,
            4.640874734186065,
            4.756677422290285,
            4.770807140897312,
            5.148419530904609,
            5.483564295081846,
            5.5296417014827375,
            6.132721228367223,
            6.140358359352388,
            6.257619242829566,
            6.343120287270056,
            7.145479228977694,
            7.162240916857851,
            7.7778688098593385,
            7.8150648405798995,
            8.055044526856747,
            8.460157726578991,
            8.683964946744247,
            9.461820176981904,
            9.600642721930514,
            10.477980891870784,
            10.538832552808044,
            10.854517842694566,
            11.206274908792924,
            11.606248298962864,
            12.176016637461185,
            14.35019004714773,
            14.493739438894876,
            14.593146220065437,
            14.663347011137386,
            15.150983980447318,
            15.168262942719714,
            15.684875457706099,
            15.797980842834672,
            15.887001624829228,
            19.728698532928156,
            22.357351240808715,
            22.794827154923148
        ]
    },
    "born_effective_charge": {
        "avg_abs_trace": 3.355541,
        "tensors": [
            [
                [
                    2.8058,
                    -0.05777,
                    -0.00563
                ],
                [
                    -0.05528,
                    2.66771,
                    0.00507
                ],
                [
                    0.02655,
                    0.01021,
                    2.57097
                ]
            ],
            [
                [
                    2.8058,
                    0.05777,
                    -0.00563
                ],
                [
                    0.05471,
                    2.66777,
                    -0.00517
                ],
                [
                    0.02655,
                    -0.01021,
                    2.57097
                ]
            ],
            [
                [
                    2.80581,
                    0.05777,
                    -0.00562
                ],
                [
                    0.05528,
                    2.66771,
                    -0.00507
                ],
                [
                    0.02654,
                    -0.01024,
                    2.57092
                ]
            ],
            [
                [
                    2.80581,
                    -0.05777,
                    -0.00562
                ],
                [
                    -0.05471,
                    2.66777,
                    0.00517
                ],
                [
                    0.02654,
                    0.01024,
                    2.57092
                ]
            ],
            [
                [
                    4.84604,
                    0.09372,
                    0.44089
                ],
                [
                    -0.02487,
                    4.55774,
                    -0.02922
                ],
                [
                    -0.18406,
                    -0.04254,
                    4.72108
                ]
            ],
            [
                [
                    4.84604,
                    -0.09372,
                    0.44089
                ],
                [
                    0.02487,
                    4.55774,
                    0.02922
                ],
                [
                    -0.18406,
                    0.04254,
                    4.72108
                ]
            ],
            [
                [
                    6.66339,
                    -0.04728,
                    -0.20252
                ],
                [
                    -0.00749,
                    6.67416,
                    -0.05295
                ],
                [
                    0.01735,
                    -0.032,
                    6.78173
                ]
            ],
            [
                [
                    6.66339,
                    0.04728,
                    -0.20252
                ],
                [
                    0.00749,
                    6.67416,
                    0.05295
                ],
                [
                    0.01735,
                    0.032,
                    6.78173
                ]
            ],
            [
                [
                    -2.06005,
                    0.0206,
                    -0.315
                ],
                [
                    0.02527,
                    -1.77582,
                    -0.02628
                ],
                [
                    -0.25295,
                    -0.01748,
                    -4.5555
                ]
            ],
            [
                [
                    -3.19624,
                    1.30843,
                    0.10108
                ],
                [
                    1.35615,
                    -3.30103,
                    -0.13984
                ],
                [
                    0.1515,
                    -0.189,
                    -1.88859
                ]
            ],
            [
                [
                    -3.30419,
                    -1.34176,
                    0.10039
                ],
                [
                    -1.3441,
                    -3.2068,
                    0.08182
                ],
                [
                    0.15827,
                    0.11722,
                    -1.87829
                ]
            ],
            [
                [
                    -3.19635,
                    -1.30843,
                    0.10106
                ],
                [
                    -1.35615,
                    -3.30103,
                    0.13984
                ],
                [
                    0.15149,
                    0.18899,
                    -1.8886
                ]
            ],
            [
                [
                    -3.30421,
                    1.34174,
                    0.10034
                ],
                [
                    1.3441,
                    -3.2068,
                    -0.08182
                ],
                [
                    0.1583,
                    -0.11722,
                    -1.87827
                ]
            ],
            [
                [
                    -3.30419,
                    1.34176,
                    0.10039
                ],
                [
                    1.34428,
                    -3.2067,
                    -0.08212
                ],
                [
                    0.15827,
                    -0.11722,
                    -1.87829
                ]
            ],
            [
                [
                    -2.06,
                    0.02058,
                    -0.31499
                ],
                [
                    0.02487,
                    -1.77588,
                    -0.02581
                ],
                [
                    -0.25299,
                    -0.01748,
                    -4.55544
                ]
            ],
            [
                [
                    -3.19635,
                    1.30843,
                    0.10106
                ],
                [
                    1.35621,
                    -3.30115,
                    -0.13949
                ],
                [
                    0.15149,
                    -0.18899,
                    -1.8886
                ]
            ],
            [
                [
                    -3.19624,
                    -1.30843,
                    0.10108
                ],
                [
                    -1.35621,
                    -3.30115,
                    0.13949
                ],
                [
                    0.1515,
                    0.189,
                    -1.88859
                ]
            ],
            [
                [
                    -2.06005,
                    -0.0206,
                    -0.315
                ],
                [
                    -0.02487,
                    -1.77588,
                    0.02581
                ],
                [
                    -0.25295,
                    0.01748,
                    -4.5555
                ]
            ],
            [
                [
                    -3.30421,
                    -1.34174,
                    0.10034
                ],
                [
                    -1.34428,
                    -3.2067,
                    0.08212
                ],
                [
                    0.1583,
                    0.11722,
                    -1.87827
                ]
            ],
            [
                [
                    -2.06,
                    -0.02058,
                    -0.31499
                ],
                [
                    -0.02527,
                    -1.77582,
                    0.02628
                ],
                [
                    -0.25299,
                    0.01748,
                    -4.55544
                ]
            ]
        ]
    },
    "band_gap": 3.7968,
    "is_direct": false,
    "formula": "Ba2LaTaO6"
}