{
    "mp_id": "mp-559759",
    "nelements": 4,
    "nsites": 28,
    "elements": [
        "Al",
        "B",
        "Ca",
        "O"
    ],
    "structure": {
        "@module": "pymatgen.core.structure",
        "@class": "Structure",
        "charge": null,
        "lattice": {
            "matrix": [
                [
                    4.10858119,
                    -7.60681839,
                    0.0
                ],
                [
                    4.10858119,
                    7.60681839,
                    0.0
                ],
                [
                    0.0,
                    0.0,
                    5.75996227
                ]
            ],
            "a": 8.645468490097226,
            "b": 8.645468490097226,
            "c": 5.75996227,
            "alpha": 90.0,
            "beta": 90.0,
            "gamma": 123.25141959732123,
            "volume": 360.0348622086012
        },
        "sites": [
            {
                "species": [
                    {
                        "element": "Ca",
                        "occu": 1
                    }
                ],
                "abc": [
                    0.05023483,
                    0.23499437,
                    0.98780994
                ],
                "xyz": [
                    1.171887325958748,
                    1.4054322665999406,
                    5.689747984330964
                ],
                "label": "Ca",
                "properties": {}
            },
            {
                "species": [
                    {
                        "element": "Ca",
                        "occu": 1
                    }
                ],
                "abc": [
                    0.23499437,
                    0.05023483,
                    0.48780994
                ],
                "xyz": [
                    1.171887325958748,
                    -1.4054322665999406,
                    2.8097668493309635
                ],
                "label": "Ca",
                "properties": {}
            },
            {
                "species": [
                    {
                        "element": "Ca",
                        "occu": 1
                    }
                ],
                "abc": [
                    0.94976517,
                    0.76500563,
                    0.98780994
                ],
                "xyz": [
                    7.045275054041252,
                    -1.4054322665999415,
                    5.689747984330964
                ],
                "label": "Ca",
                "properties": {}
            },
            {
                "species": [
                    {
                        "element": "Ca",
                        "occu": 1
                    }
                ],
                "abc": [
                    0.76500563,
                    0.94976517,
                    0.48780994
                ],
                "xyz": [
                    7.045275054041252,
                    1.4054322665999415,
                    2.8097668493309635
                ],
                "label": "Ca",
                "properties": {}
            },
            {
                "species": [
                    {
                        "element": "Al",
                        "occu": 1
                    }
                ],
                "abc": [
                    0.72238688,
                    0.30819707,
                    0.26096923
                ],
                "xyz": [
                    4.2342378316859,
                    -3.1506666636586056,
                    1.5031729184309521
                ],
                "label": "Al",
                "properties": {}
            },
            {
                "species": [
                    {
                        "element": "Al",
                        "occu": 1
                    }
                ],
                "abc": [
                    0.27761312,
                    0.69180293,
                    0.26096923
                ],
                "xyz": [
                    3.9829245483140996,
                    3.150666663658606,
                    1.5031729184309521
                ],
                "label": "Al",
                "properties": {}
            },
            {
                "species": [
                    {
                        "element": "Al",
                        "occu": 1
                    }
                ],
                "abc": [
                    0.30819707,
                    0.72238688,
                    0.76096923
                ],
                "xyz": [
                    4.2342378316859,
                    3.1506666636586056,
                    4.383154053430952
                ],
                "label": "Al",
                "properties": {}
            },
            {
                "species": [
                    {
                        "element": "Al",
                        "occu": 1
                    }
                ],
                "abc": [
                    0.69180293,
                    0.27761312,
                    0.76096923
                ],
                "xyz": [
                    3.9829245483140996,
                    -3.150666663658606,
                    4.383154053430952
                ],
                "label": "Al",
                "properties": {}
            },
            {
                "species": [
                    {
                        "element": "B",
                        "occu": 1
                    }
                ],
                "abc": [
                    0.84835181,
                    0.6275733,
                    0.52508194
                ],
                "xyz": [
                    6.063958144794681,
                    -1.6794220299847993,
                    3.024452163058404
                ],
                "label": "B",
                "properties": {}
            },
            {
                "species": [
                    {
                        "element": "B",
                        "occu": 1
                    }
                ],
                "abc": [
                    0.3724267,
                    0.15164819,
                    0.02508194
                ],
                "xyz": [
                    2.153204235205319,
                    -1.679422029984799,
                    0.1444710280584038
                ],
                "label": "B",
                "properties": {}
            },
            {
                "species": [
                    {
                        "element": "B",
                        "occu": 1
                    }
                ],
                "abc": [
                    0.6275733,
                    0.84835181,
                    0.02508194
                ],
                "xyz": [
                    6.063958144794681,
                    1.6794220299847993,
                    0.1444710280584038
                ],
                "label": "B",
                "properties": {}
            },
            {
                "species": [
                    {
                        "element": "B",
                        "occu": 1
                    }
                ],
                "abc": [
                    0.15164819,
                    0.3724267,
                    0.52508194
                ],
                "xyz": [
                    2.153204235205319,
                    1.679422029984799,
                    3.024452163058404
                ],
                "label": "B",
                "properties": {}
            },
            {
                "species": [
                    {
                        "element": "O",
                        "occu": 1
                    }
                ],
                "abc": [
                    0.51707841,
                    0.7836068,
                    0.22184102
                ],
                "xyz": [
                    5.3439707879172005,
                    2.0274330585090925,
                    1.2777959051383154
                ],
                "label": "O",
                "properties": {}
            },
            {
                "species": [
                    {
                        "element": "O",
                        "occu": 1
                    }
                ],
                "abc": [
                    0.1995882,
                    0.73671963,
                    0.00722437
                ],
                "xyz": [
                    3.8468967383877173,
                    4.085861239570997,
                    0.0416120986245199
                ],
                "label": "O",
                "properties": {}
            },
            {
                "species": [
                    {
                        "element": "O",
                        "occu": 1
                    }
                ],
                "abc": [
                    0.55190875,
                    0.83051139,
                    0.80601104
                ],
                "xyz": [
                    5.679785383881166,
                    2.1192796854545497,
                    4.642593179603461
                ],
                "label": "O",
                "properties": {}
            },
            {
                "species": [
                    {
                        "element": "O",
                        "occu": 1
                    }
                ],
                "abc": [
                    0.44809125,
                    0.16948861,
                    0.80601104
                ],
                "xyz": [
                    2.5373769961188333,
                    -2.1192796854545493,
                    4.642593179603461
                ],
                "label": "O",
                "properties": {}
            },
            {
                "species": [
                    {
                        "element": "O",
                        "occu": 1
                    }
                ],
                "abc": [
                    0.83051139,
                    0.55190875,
                    0.30601104
                ],
                "xyz": [
                    5.679785383881166,
                    -2.1192796854545497,
                    1.7626120446034608
                ],
                "label": "O",
                "properties": {}
            },
            {
                "species": [
                    {
                        "element": "O",
                        "occu": 1
                    }
                ],
                "abc": [
                    0.16948861,
                    0.44809125,
                    0.30601104
                ],
                "xyz": [
                    2.5373769961188333,
                    2.1192796854545493,
                    1.7626120446034608
                ],
                "label": "O",
                "properties": {}
            },
            {
                "species": [
                    {
                        "element": "O",
                        "occu": 1
                    }
                ],
                "abc": [
                    0.26328037,
                    0.8004118,
                    0.50722437
                ],
                "xyz": [
                    4.370265641612282,
                    4.085861239570998,
                    2.92159323362452
                ],
                "label": "O",
                "properties": {}
            },
            {
                "species": [
                    {
                        "element": "O",
                        "occu": 1
                    }
                ],
                "abc": [
                    0.07233732,
                    0.18692836,
                    0.55736246
                ],
                "xyz": [
                    1.0652140960605592,
                    0.8716732304012255,
                    3.210386740314384
                ],
                "label": "O",
                "properties": {}
            },
            {
                "species": [
                    {
                        "element": "O",
                        "occu": 1
                    }
                ],
                "abc": [
                    0.7836068,
                    0.51707841,
                    0.72184102
                ],
                "xyz": [
                    5.3439707879172005,
                    -2.0274330585090925,
                    4.157777040138316
                ],
                "label": "O",
                "properties": {}
            },
            {
                "species": [
                    {
                        "element": "O",
                        "occu": 1
                    }
                ],
                "abc": [
                    0.8004118,
                    0.26328037,
                    0.00722437
                ],
                "xyz": [
                    4.370265641612282,
                    -4.085861239570998,
                    0.0416120986245199
                ],
                "label": "O",
                "properties": {}
            },
            {
                "species": [
                    {
                        "element": "O",
                        "occu": 1
                    }
                ],
                "abc": [
                    0.92766268,
                    0.81307164,
                    0.55736246
                ],
                "xyz": [
                    7.15194828393944,
                    -0.8716732304012256,
                    3.210386740314384
                ],
                "label": "O",
                "properties": {}
            },
            {
                "species": [
                    {
                        "element": "O",
                        "occu": 1
                    }
                ],
                "abc": [
                    0.73671963,
                    0.1995882,
                    0.50722437
                ],
                "xyz": [
                    3.8468967383877173,
                    -4.085861239570997,
                    2.92159323362452
                ],
                "label": "O",
                "properties": {}
            },
            {
                "species": [
                    {
                        "element": "O",
                        "occu": 1
                    }
                ],
                "abc": [
                    0.18692836,
                    0.07233732,
                    0.05736246
                ],
                "xyz": [
                    1.0652140960605592,
                    -0.8716732304012255,
                    0.3304056053143842
                ],
                "label": "O",
                "properties": {}
            },
            {
                "species": [
                    {
                        "element": "O",
                        "occu": 1
                    }
                ],
                "abc": [
                    0.48292159,
                    0.2163932,
                    0.22184102
                ],
                "xyz": [
                    2.8731915920828,
                    -2.027433058509092,
                    1.2777959051383154
                ],
                "label": "O",
                "properties": {}
            },
            {
                "species": [
                    {
                        "element": "O",
                        "occu": 1
                    }
                ],
                "abc": [
                    0.2163932,
                    0.48292159,
                    0.72184102
                ],
                "xyz": [
                    2.8731915920828,
                    2.027433058509092,
                    4.157777040138316
                ],
                "label": "O",
                "properties": {}
            },
            {
                "species": [
                    {
                        "element": "O",
                        "occu": 1
                    }
                ],
                "abc": [
                    0.81307164,
                    0.92766268,
                    0.05736246
                ],
                "xyz": [
                    7.15194828393944,
                    0.8716732304012256,
                    0.3304056053143842
                ],
                "label": "O",
                "properties": {}
            }
        ]
    },
    "spacegroup": {
        "source": "spglib",
        "symbol": "Ccc2",
        "number": 37,
        "point_group": "mm2",
        "crystal_system": "orthorhombic",
        "hall": "C 2 -2c"
    },
    "dielectric": {
        "epsilon_ionic": [
            [
                3.29023238,
                -0.0,
                -1.56e-06
            ],
            [
                -0.0,
                3.09816811,
                4.29e-06
            ],
            [
                -1.56e-06,
                4.29e-06,
                5.50781861
            ]
        ],
        "epsilon_ionic_avg": 3.9654063666666666,
        "epsilon_ionic_eig": [
            3.290232379998901,
            5.507818610008737,
            3.098168109992362
        ],
        "epsilon_electronic": [
            [
                2.69937349,
                0.0,
                0.0
            ],
            [
                0.0,
                2.63636178,
                0.0
            ],
            [
                0.0,
                0.0,
                2.79470554
            ]
        ],
        "epsilon_electronic_avg": 2.7101469366666664,
        "epsilon_electronic_eig": [
            2.69937349,
            2.63636178,
            2.79470554
        ]
    },
    "phonon": {
        "lowest_freq": -0.12088900590799276,
        "frequency": [
            -0.12088900590799276,
            -0.09720874853394552,
            -0.05878768489792476,
            2.433750504767786,
            2.5182622340063094,
            3.1278180271271494,
            3.5003045673420043,
            3.8233985535089743,
            4.032819090528302,
            4.185433012123229,
            4.301599460471792,
            4.888072928726504,
            4.954744361961691,
            4.958566356474955,
            5.038219330810423,
            5.310599876392164,
            5.492562796200707,
            5.723482358857365,
            5.850939665032137,
            6.119275647058369,
            6.285957463026344,
            6.640710851115548,
            6.789425798823287,
            6.817418564482301,
            6.9617489841257365,
            7.214807151622745,
            7.2723496599228294,
            7.373139461202611,
            7.500383974521034,
            7.947110966312246,
            8.528026108741972,
            8.586650689233787,
            8.604759395702153,
            8.914111788877083,
            8.957521722517777,
            9.194687637477701,
            9.299158396636244,
            9.437825116586913,
            10.008057024621333,
            10.163748833756364,
            10.383541568067518,
            11.599509226147633,
            11.683104527226163,
            12.098010402521204,
            12.147045574443466,
            12.245849728721115,
            12.356767105963806,
            12.892336971343676,
            14.177356182925196,
            14.676424452575496,
            16.144897905206136,
            17.136312758480216,
            18.83239638924518,
            18.943361140297476,
            19.387834346962894,
            19.50938917690087,
            19.985695882194847,
            20.290767945912876,
            20.459768621424224,
            20.525754919527763,
            21.4074983841419,
            21.466701153180534,
            21.561817484265337,
            21.66989335629609,
            22.251029928668384,
            22.253107850550315,
            22.31600246665132,
            22.565771867934842,
            24.038065242367267,
            24.23349346893928,
            24.430354162489145,
            24.438263758550914,
            29.065202915538507,
            29.09233752028225,
            29.151595724247883,
            29.15254743372911,
            36.87351824313347,
            37.01436036797988,
            37.756601698115105,
            38.11677412684786,
            38.64706016755635,
            39.28999820132428,
            39.381600907267476,
            40.64533950738271
        ]
    },
    "born_effective_charge": {
        "avg_abs_trace": 1.9738950000000002,
        "tensors": [
            [
                [
                    2.18906,
                    -0.06586,
                    -0.07048
                ],
                [
                    -0.06947,
                    2.56181,
                    -0.00094
                ],
                [
                    -0.07644,
                    -0.0105,
                    2.33679
                ]
            ],
            [
                [
                    2.18906,
                    0.06586,
                    -0.07048
                ],
                [
                    0.06948,
                    2.5618,
                    0.00095
                ],
                [
                    -0.07644,
                    0.0105,
                    2.33679
                ]
            ],
            [
                [
                    2.18906,
                    -0.06586,
                    0.07048
                ],
                [
                    -0.06948,
                    2.5618,
                    0.00095
                ],
                [
                    0.07644,
                    0.0105,
                    2.33679
                ]
            ],
            [
                [
                    2.18906,
                    0.06586,
                    0.07048
                ],
                [
                    0.06947,
                    2.56181,
                    -0.00094
                ],
                [
                    0.07644,
                    -0.0105,
                    2.33679
                ]
            ],
            [
                [
                    2.68505,
                    0.03854,
                    0.19704
                ],
                [
                    -0.01083,
                    2.25266,
                    -0.02389
                ],
                [
                    0.30492,
                    0.01352,
                    2.72534
                ]
            ],
            [
                [
                    2.68505,
                    0.03853,
                    -0.19704
                ],
                [
                    -0.01084,
                    2.25265,
                    0.02389
                ],
                [
                    -0.30492,
                    -0.01352,
                    2.72534
                ]
            ],
            [
                [
                    2.68505,
                    -0.03854,
                    0.19704
                ],
                [
                    0.01084,
                    2.25265,
                    0.02389
                ],
                [
                    0.30492,
                    -0.01352,
                    2.72534
                ]
            ],
            [
                [
                    2.68505,
                    -0.03853,
                    -0.19704
                ],
                [
                    0.01083,
                    2.25266,
                    -0.02389
                ],
                [
                    -0.30492,
                    0.01352,
                    2.72534
                ]
            ],
            [
                [
                    2.02341,
                    -1.02698,
                    -0.0326
                ],
                [
                    -1.09379,
                    1.40323,
                    -0.22335
                ],
                [
                    -0.06824,
                    -0.22711,
                    2.54855
                ]
            ],
            [
                [
                    2.02341,
                    1.02698,
                    0.0326
                ],
                [
                    1.09379,
                    1.40323,
                    -0.22335
                ],
                [
                    0.06824,
                    -0.22711,
                    2.54855
                ]
            ],
            [
                [
                    2.02341,
                    1.02698,
                    -0.0326
                ],
                [
                    1.09379,
                    1.40323,
                    0.22335
                ],
                [
                    -0.06824,
                    0.22711,
                    2.54855
                ]
            ],
            [
                [
                    2.02341,
                    -1.02698,
                    0.0326
                ],
                [
                    -1.09379,
                    1.40323,
                    0.22335
                ],
                [
                    0.06824,
                    0.22711,
                    2.54855
                ]
            ],
            [
                [
                    -1.89798,
                    -0.68459,
                    0.3858
                ],
                [
                    -0.66732,
                    -1.21913,
                    0.20111
                ],
                [
                    0.4035,
                    0.21917,
                    -1.98335
                ]
            ],
            [
                [
                    -1.40185,
                    -0.19475,
                    0.02356
                ],
                [
                    -0.21926,
                    -1.81943,
                    -0.02222
                ],
                [
                    0.05285,
                    -0.01708,
                    -1.97318
                ]
            ],
            [
                [
                    -1.62438,
                    -0.56099,
                    -0.27694
                ],
                [
                    -0.49594,
                    -1.2537,
                    -0.31299
                ],
                [
                    -0.23334,
                    -0.32196,
                    -2.19264
                ]
            ],
            [
                [
                    -1.62439,
                    -0.56099,
                    0.27694
                ],
                [
                    -0.49592,
                    -1.2537,
                    0.313
                ],
                [
                    0.23334,
                    0.32196,
                    -2.19264
                ]
            ],
            [
                [
                    -1.62438,
                    0.56099,
                    -0.27694
                ],
                [
                    0.49592,
                    -1.2537,
                    0.313
                ],
                [
                    -0.23334,
                    0.32196,
                    -2.19264
                ]
            ],
            [
                [
                    -1.62439,
                    0.56099,
                    0.27694
                ],
                [
                    0.49594,
                    -1.2537,
                    -0.31299
                ],
                [
                    0.23334,
                    -0.32196,
                    -2.19264
                ]
            ],
            [
                [
                    -1.40185,
                    0.19475,
                    -0.02356
                ],
                [
                    0.21926,
                    -1.81943,
                    -0.02222
                ],
                [
                    -0.05285,
                    -0.01708,
                    -1.97318
                ]
            ],
            [
                [
                    -1.97331,
                    0.5335,
                    0.0201
                ],
                [
                    0.52372,
                    -1.92545,
                    0.01064
                ],
                [
                    0.02615,
                    -0.0145,
                    -1.46151
                ]
            ],
            [
                [
                    -1.89798,
                    0.68459,
                    0.3858
                ],
                [
                    0.6673,
                    -1.21913,
                    -0.20113
                ],
                [
                    0.4035,
                    -0.21917,
                    -1.98335
                ]
            ],
            [
                [
                    -1.40185,
                    -0.19475,
                    -0.02356
                ],
                [
                    -0.21926,
                    -1.81943,
                    0.02222
                ],
                [
                    -0.05285,
                    0.01708,
                    -1.97318
                ]
            ],
            [
                [
                    -1.97331,
                    0.5335,
                    -0.0201
                ],
                [
                    0.52373,
                    -1.92543,
                    -0.01064
                ],
                [
                    -0.02615,
                    0.0145,
                    -1.46151
                ]
            ],
            [
                [
                    -1.40185,
                    0.19475,
                    0.02356
                ],
                [
                    0.21926,
                    -1.81943,
                    0.02222
                ],
                [
                    0.05285,
                    0.01708,
                    -1.97318
                ]
            ],
            [
                [
                    -1.97331,
                    -0.5335,
                    0.0201
                ],
                [
                    -0.52373,
                    -1.92543,
                    -0.01064
                ],
                [
                    0.02615,
                    0.0145,
                    -1.46151
                ]
            ],
            [
                [
                    -1.89798,
                    -0.68459,
                    -0.3858
                ],
                [
                    -0.6673,
                    -1.21913,
                    -0.20113
                ],
                [
                    -0.4035,
                    -0.21917,
                    -1.98335
                ]
            ],
            [
                [
                    -1.89798,
                    0.68459,
                    -0.3858
                ],
                [
                    0.66732,
                    -1.21913,
                    0.20111
                ],
                [
                    -0.4035,
                    0.21917,
                    -1.98335
                ]
            ],
            [
                [
                    -1.97331,
                    -0.5335,
                    -0.0201
                ],
                [
                    -0.52372,
                    -1.92545,
                    0.01064
                ],
                [
                    -0.02615,
                    -0.0145,
                    -1.46151
                ]
            ]
        ]
    },
    "band_gap": 4.8472,
    "is_direct": false,
    "formula": "CaAlBO4"
}