{
    "mp_id": "mp-5163",
    "nelements": 3,
    "nsites": 20,
    "elements": [
        "La",
        "O",
        "Rh"
    ],
    "structure": {
        "@module": "pymatgen.core.structure",
        "@class": "Structure",
        "charge": null,
        "lattice": {
            "matrix": [
                [
                    5.70823443,
                    0.0,
                    0.0
                ],
                [
                    0.0,
                    7.83320379,
                    0.0
                ],
                [
                    0.0,
                    0.0,
                    5.45419549
                ]
            ],
            "a": 5.70823443,
            "b": 7.83320379,
            "c": 5.45419549,
            "alpha": 90.0,
            "beta": 90.0,
            "gamma": 90.0,
            "volume": 243.87760761142616
        },
        "sites": [
            {
                "species": [
                    {
                        "element": "La",
                        "occu": 1
                    }
                ],
                "abc": [
                    0.56335496,
                    0.75,
                    0.48312666
                ],
                "xyz": [
                    3.2157621789832724,
                    5.8749028425,
                    2.6350672500707635
                ],
                "label": "La",
                "properties": {}
            },
            {
                "species": [
                    {
                        "element": "La",
                        "occu": 1
                    }
                ],
                "abc": [
                    0.93664504,
                    0.25,
                    0.98312666
                ],
                "xyz": [
                    5.346589466016727,
                    1.9583009475,
                    5.3621649950707635
                ],
                "label": "La",
                "properties": {}
            },
            {
                "species": [
                    {
                        "element": "La",
                        "occu": 1
                    }
                ],
                "abc": [
                    0.06335496,
                    0.75,
                    0.01687334
                ],
                "xyz": [
                    0.36164496398327284,
                    5.8749028425,
                    0.09203049492923661
                ],
                "label": "La",
                "properties": {}
            },
            {
                "species": [
                    {
                        "element": "La",
                        "occu": 1
                    }
                ],
                "abc": [
                    0.43664504,
                    0.25,
                    0.51687334
                ],
                "xyz": [
                    2.492472251016727,
                    1.9583009475,
                    2.8191282399292366
                ],
                "label": "La",
                "properties": {}
            },
            {
                "species": [
                    {
                        "element": "Rh",
                        "occu": 1
                    }
                ],
                "abc": [
                    0.0,
                    0.5,
                    0.5
                ],
                "xyz": [
                    0.0,
                    3.916601895,
                    2.727097745
                ],
                "label": "Rh",
                "properties": {}
            },
            {
                "species": [
                    {
                        "element": "Rh",
                        "occu": 1
                    }
                ],
                "abc": [
                    0.5,
                    0.5,
                    0.0
                ],
                "xyz": [
                    2.854117215,
                    3.916601895,
                    0.0
                ],
                "label": "Rh",
                "properties": {}
            },
            {
                "species": [
                    {
                        "element": "Rh",
                        "occu": 1
                    }
                ],
                "abc": [
                    0.5,
                    0.0,
                    0.0
                ],
                "xyz": [
                    2.854117215,
                    0.0,
                    0.0
                ],
                "label": "Rh",
                "properties": {}
            },
            {
                "species": [
                    {
                        "element": "Rh",
                        "occu": 1
                    }
                ],
                "abc": [
                    0.0,
                    0.0,
                    0.5
                ],
                "xyz": [
                    0.0,
                    0.0,
                    2.727097745
                ],
                "label": "Rh",
                "properties": {}
            },
            {
                "species": [
                    {
                        "element": "O",
                        "occu": 1
                    }
                ],
                "abc": [
                    0.20026218,
                    0.45071247,
                    0.80540539
                ],
                "xyz": [
                    1.1431434709028574,
                    3.530522628204261,
                    4.392838445759691
                ],
                "label": "O",
                "properties": {}
            },
            {
                "species": [
                    {
                        "element": "O",
                        "occu": 1
                    }
                ],
                "abc": [
                    0.29973782,
                    0.54928753,
                    0.30540539
                ],
                "xyz": [
                    1.7109737440971426,
                    4.302681161795738,
                    1.6657407007596912
                ],
                "label": "O",
                "properties": {}
            },
            {
                "species": [
                    {
                        "element": "O",
                        "occu": 1
                    }
                ],
                "abc": [
                    0.70026218,
                    0.04928753,
                    0.69459461
                ],
                "xyz": [
                    3.997260685902857,
                    0.38607926679573873,
                    3.788454789240309
                ],
                "label": "O",
                "properties": {}
            },
            {
                "species": [
                    {
                        "element": "O",
                        "occu": 1
                    }
                ],
                "abc": [
                    0.79973782,
                    0.95071247,
                    0.19459461
                ],
                "xyz": [
                    4.565090959097143,
                    7.447124523204262,
                    1.0613570442403089
                ],
                "label": "O",
                "properties": {}
            },
            {
                "species": [
                    {
                        "element": "O",
                        "occu": 1
                    }
                ],
                "abc": [
                    0.79973782,
                    0.54928753,
                    0.19459461
                ],
                "xyz": [
                    4.565090959097143,
                    4.302681161795738,
                    1.0613570442403089
                ],
                "label": "O",
                "properties": {}
            },
            {
                "species": [
                    {
                        "element": "O",
                        "occu": 1
                    }
                ],
                "abc": [
                    0.70026218,
                    0.45071247,
                    0.69459461
                ],
                "xyz": [
                    3.997260685902857,
                    3.530522628204261,
                    3.788454789240309
                ],
                "label": "O",
                "properties": {}
            },
            {
                "species": [
                    {
                        "element": "O",
                        "occu": 1
                    }
                ],
                "abc": [
                    0.29973782,
                    0.95071247,
                    0.30540539
                ],
                "xyz": [
                    1.7109737440971426,
                    7.447124523204262,
                    1.6657407007596912
                ],
                "label": "O",
                "properties": {}
            },
            {
                "species": [
                    {
                        "element": "O",
                        "occu": 1
                    }
                ],
                "abc": [
                    0.20026218,
                    0.04928753,
                    0.80540539
                ],
                "xyz": [
                    1.1431434709028574,
                    0.38607926679573873,
                    4.392838445759691
                ],
                "label": "O",
                "properties": {}
            },
            {
                "species": [
                    {
                        "element": "O",
                        "occu": 1
                    }
                ],
                "abc": [
                    0.02311703,
                    0.25,
                    0.40335644
                ],
                "xyz": [
                    0.1319574265653429,
                    1.9583009475,
                    2.1999848759104554
                ],
                "label": "O",
                "properties": {}
            },
            {
                "species": [
                    {
                        "element": "O",
                        "occu": 1
                    }
                ],
                "abc": [
                    0.47688297,
                    0.75,
                    0.90335644
                ],
                "xyz": [
                    2.722159788434657,
                    5.8749028425,
                    4.927082620910456
                ],
                "label": "O",
                "properties": {}
            },
            {
                "species": [
                    {
                        "element": "O",
                        "occu": 1
                    }
                ],
                "abc": [
                    0.52311703,
                    0.25,
                    0.09664356
                ],
                "xyz": [
                    2.986074641565343,
                    1.9583009475,
                    0.5271128690895445
                ],
                "label": "O",
                "properties": {}
            },
            {
                "species": [
                    {
                        "element": "O",
                        "occu": 1
                    }
                ],
                "abc": [
                    0.97688297,
                    0.75,
                    0.59664356
                ],
                "xyz": [
                    5.576277003434657,
                    5.8749028425,
                    3.254210614089544
                ],
                "label": "O",
                "properties": {}
            }
        ]
    },
    "spacegroup": {
        "source": "spglib",
        "symbol": "Pnma",
        "number": 62,
        "point_group": "mmm",
        "crystal_system": "orthorhombic",
        "hall": "-P 2ac 2n"
    },
    "dielectric": {
        "epsilon_ionic": [
            [
                9.85760797,
                -6e-08,
                3e-08
            ],
            [
                -6e-08,
                11.58509491,
                -2e-08
            ],
            [
                3e-08,
                -2e-08,
                10.7849494
            ]
        ],
        "epsilon_ionic_avg": 10.74255076,
        "epsilon_ionic_eig": [
            9.857607970000002,
            11.585094909999997,
            10.7849494
        ],
        "epsilon_electronic": [
            [
                8.69842201,
                0.0,
                0.0
            ],
            [
                0.0,
                8.28044993,
                0.0
            ],
            [
                -0.0,
                0.0,
                8.27762404
            ]
        ],
        "epsilon_electronic_avg": 8.418831993333333,
        "epsilon_electronic_eig": [
            8.69842201,
            8.28044993,
            8.27762404
        ]
    },
    "phonon": {
        "lowest_freq": -0.049194529058954384,
        "frequency": [
            -0.049194529058954384,
            -0.037438035290234914,
            -0.02022910756962262,
            2.508889453340881,
            2.7757248597872963,
            2.9543069960751067,
            3.646116101192415,
            4.020761269768516,
            4.123049225286251,
            4.154679147626947,
            4.373826947742679,
            4.41364581413126,
            4.424437474279248,
            4.471735655182673,
            4.7013102835457925,
            4.866190612724801,
            4.881867871975808,
            4.996442133270568,
            6.6712193700187825,
            6.790350863135305,
            6.857311066467252,
            7.42141869238174,
            7.5377905261517855,
            7.5683671614505,
            7.621555144835743,
            7.651170626080425,
            7.717359636352179,
            7.784965644546814,
            7.94240528227269,
            7.9738926462404205,
            8.146116109819356,
            8.259852648422655,
            8.922319836349928,
            9.860585206957325,
            10.35771389097617,
            10.500082551738886,
            11.251280498367368,
            11.963843075079359,
            12.339866225246533,
            12.849748086820172,
            13.064652419802973,
            14.006926190686231,
            14.161406894926749,
            14.1864598022191,
            14.306838067386,
            14.505775074288934,
            15.115827803795035,
            15.216279600507622,
            15.885458107871965,
            15.967796959985204,
            16.232428533077936,
            16.600629450544425,
            16.89935331885682,
            16.96635817822358,
            17.518991972595302,
            17.56529567919172,
            17.739599146275655,
            17.99487448369281,
            18.728883642622478,
            18.84788052857393
        ]
    },
    "born_effective_charge": {
        "avg_abs_trace": 2.628235666666667,
        "tensors": [
            [
                [
                    4.44539,
                    -0.0,
                    0.14351
                ],
                [
                    -2e-05,
                    4.34096,
                    -0.0002
                ],
                [
                    0.35802,
                    -0.0,
                    4.54848
                ]
            ],
            [
                [
                    4.44534,
                    -0.0,
                    -0.14297
                ],
                [
                    2e-05,
                    4.34096,
                    -0.0002
                ],
                [
                    -0.35802,
                    -0.0,
                    4.54848
                ]
            ],
            [
                [
                    4.44539,
                    -0.0,
                    -0.14351
                ],
                [
                    -2e-05,
                    4.34096,
                    0.0002
                ],
                [
                    -0.35859,
                    -0.0,
                    4.54934
                ]
            ],
            [
                [
                    4.44534,
                    -0.0,
                    0.14297
                ],
                [
                    2e-05,
                    4.34096,
                    0.0002
                ],
                [
                    0.35859,
                    -0.0,
                    4.54934
                ]
            ],
            [
                [
                    2.32855,
                    -0.21171,
                    0.65118
                ],
                [
                    -0.50082,
                    2.22258,
                    0.74798
                ],
                [
                    -0.49748,
                    -0.85013,
                    1.8254
                ]
            ],
            [
                [
                    2.32855,
                    -0.21171,
                    -0.65118
                ],
                [
                    -0.50082,
                    2.22258,
                    -0.74798
                ],
                [
                    0.49748,
                    0.85013,
                    1.8254
                ]
            ],
            [
                [
                    2.32855,
                    0.21171,
                    -0.65118
                ],
                [
                    0.50082,
                    2.22258,
                    0.74798
                ],
                [
                    0.49748,
                    -0.85013,
                    1.8254
                ]
            ],
            [
                [
                    2.32855,
                    0.21171,
                    0.65118
                ],
                [
                    0.50082,
                    2.22258,
                    -0.74798
                ],
                [
                    -0.49748,
                    0.85013,
                    1.8254
                ]
            ],
            [
                [
                    -2.59212,
                    -0.05733,
                    -0.80369
                ],
                [
                    -0.00784,
                    -1.62235,
                    -0.16593
                ],
                [
                    -0.84116,
                    -0.2324,
                    -2.32941
                ]
            ],
            [
                [
                    -2.59186,
                    -0.05742,
                    0.80343
                ],
                [
                    -0.00765,
                    -1.62207,
                    0.1661
                ],
                [
                    0.84116,
                    0.2324,
                    -2.32941
                ]
            ],
            [
                [
                    -2.59212,
                    0.05733,
                    0.80369
                ],
                [
                    0.00765,
                    -1.62207,
                    -0.1661
                ],
                [
                    0.84131,
                    -0.23215,
                    -2.32971
                ]
            ],
            [
                [
                    -2.59186,
                    0.05742,
                    -0.80343
                ],
                [
                    0.00784,
                    -1.62235,
                    0.16593
                ],
                [
                    -0.84131,
                    0.23215,
                    -2.32971
                ]
            ],
            [
                [
                    -2.59186,
                    -0.05742,
                    -0.80343
                ],
                [
                    -0.00765,
                    -1.62207,
                    -0.1661
                ],
                [
                    -0.84131,
                    -0.23215,
                    -2.32971
                ]
            ],
            [
                [
                    -2.59212,
                    -0.05733,
                    0.80369
                ],
                [
                    -0.00784,
                    -1.62235,
                    0.16593
                ],
                [
                    0.84131,
                    0.23215,
                    -2.32971
                ]
            ],
            [
                [
                    -2.59186,
                    0.05742,
                    0.80343
                ],
                [
                    0.00784,
                    -1.62235,
                    -0.16593
                ],
                [
                    0.84116,
                    -0.2324,
                    -2.32941
                ]
            ],
            [
                [
                    -2.59212,
                    0.05733,
                    -0.80369
                ],
                [
                    0.00765,
                    -1.62207,
                    0.1661
                ],
                [
                    -0.84116,
                    0.2324,
                    -2.32941
                ]
            ],
            [
                [
                    -1.59009,
                    -0.0,
                    -0.42875
                ],
                [
                    0.00015,
                    -3.31912,
                    -0.00022
                ],
                [
                    -0.50862,
                    -0.0,
                    -1.71509
                ]
            ],
            [
                [
                    -1.58978,
                    -0.0,
                    0.42896
                ],
                [
                    -0.00015,
                    -3.31912,
                    -0.00022
                ],
                [
                    0.50862,
                    -0.0,
                    -1.71509
                ]
            ],
            [
                [
                    -1.59009,
                    -0.0,
                    0.42875
                ],
                [
                    0.00015,
                    -3.31912,
                    0.00022
                ],
                [
                    0.50754,
                    -0.0,
                    -1.7153
                ]
            ],
            [
                [
                    -1.58978,
                    -0.0,
                    -0.42896
                ],
                [
                    -0.00015,
                    -3.31912,
                    0.00022
                ],
                [
                    -0.50754,
                    -0.0,
                    -1.7153
                ]
            ]
        ]
    },
    "band_gap": 1.1778999999999993,
    "is_direct": true,
    "formula": "LaRhO3"
}