{
    "mp_id": "mp-551269",
    "nelements": 4,
    "nsites": 10,
    "elements": [
        "Ba",
        "La",
        "O",
        "Sb"
    ],
    "structure": {
        "@module": "pymatgen.core.structure",
        "@class": "Structure",
        "charge": null,
        "lattice": {
            "matrix": [
                [
                    3.06215354,
                    1.76793523,
                    4.92984471
                ],
                [
                    -3.06215352,
                    1.76793526,
                    4.92984471
                ],
                [
                    -2e-08,
                    -3.53586949,
                    4.92984471
                ]
            ],
            "a": 6.066774113540463,
            "b": 6.066774112188012,
            "c": 6.066773600112983,
            "alpha": 60.628402647634594,
            "beta": 60.62840268413709,
            "gamma": 60.62840703063377,
            "volume": 160.13185075249135
        },
        "sites": [
            {
                "species": [
                    {
                        "element": "Ba",
                        "occu": 1
                    }
                ],
                "abc": [
                    0.74811102,
                    0.74811102,
                    0.74811102
                ],
                "xyz": [
                    -4.8422428448637644e-17,
                    7.481110197993246e-07,
                    11.064213463319112
                ],
                "label": "Ba",
                "properties": {}
            },
            {
                "species": [
                    {
                        "element": "Ba",
                        "occu": 1
                    }
                ],
                "abc": [
                    0.25188898,
                    0.25188898,
                    0.25188898
                ],
                "xyz": [
                    1.4891761519113597e-16,
                    2.5188897989636416e-07,
                    3.7253206666808873
                ],
                "label": "Ba",
                "properties": {}
            },
            {
                "species": [
                    {
                        "element": "La",
                        "occu": 1
                    }
                ],
                "abc": [
                    0.0,
                    0.0,
                    0.0
                ],
                "xyz": [
                    0.0,
                    0.0,
                    0.0
                ],
                "label": "La",
                "properties": {}
            },
            {
                "species": [
                    {
                        "element": "Sb",
                        "occu": 1
                    }
                ],
                "abc": [
                    0.5,
                    0.5,
                    0.5
                ],
                "xyz": [
                    1.612698950065842e-16,
                    4.999999998478444e-07,
                    7.394767065
                ],
                "label": "Sb",
                "properties": {}
            },
            {
                "species": [
                    {
                        "element": "O",
                        "occu": 1
                    }
                ],
                "abc": [
                    0.31832763,
                    0.72656515,
                    0.22082031
                ],
                "xyz": [
                    -1.2500859569139238,
                    1.0665109822302519,
                    6.239768981114254
                ],
                "label": "O",
                "properties": {}
            },
            {
                "species": [
                    {
                        "element": "O",
                        "occu": 1
                    }
                ],
                "abc": [
                    0.27343485,
                    0.77917969,
                    0.68167237
                ],
                "xyz": [
                    -1.5486683501925873,
                    -0.5493501830073566,
                    8.549765148885747
                ],
                "label": "O",
                "properties": {}
            },
            {
                "species": [
                    {
                        "element": "O",
                        "occu": 1
                    }
                ],
                "abc": [
                    0.22082031,
                    0.31832763,
                    0.72656515
                ],
                "xyz": [
                    -0.29858239327866304,
                    -1.6158608995245187,
                    6.2397689811142545
                ],
                "label": "O",
                "properties": {}
            },
            {
                "species": [
                    {
                        "element": "O",
                        "occu": 1
                    }
                ],
                "abc": [
                    0.77917969,
                    0.68167237,
                    0.27343485
                ],
                "xyz": [
                    0.2985823932786636,
                    1.615861899524518,
                    8.549765148885747
                ],
                "label": "O",
                "properties": {}
            },
            {
                "species": [
                    {
                        "element": "O",
                        "occu": 1
                    }
                ],
                "abc": [
                    0.72656515,
                    0.22082031,
                    0.31832763
                ],
                "xyz": [
                    1.5486683501925875,
                    0.5493511830073565,
                    6.2397689811142545
                ],
                "label": "O",
                "properties": {}
            },
            {
                "species": [
                    {
                        "element": "O",
                        "occu": 1
                    }
                ],
                "abc": [
                    0.68167237,
                    0.27343485,
                    0.77917969
                ],
                "xyz": [
                    1.2500859569139242,
                    -1.066509982230252,
                    8.549765148885747
                ],
                "label": "O",
                "properties": {}
            }
        ]
    },
    "spacegroup": {
        "source": "spglib",
        "symbol": "R-3",
        "number": 148,
        "point_group": "-3",
        "crystal_system": "trigonal",
        "hall": "-R 3"
    },
    "dielectric": {
        "epsilon_ionic": [
            [
                15.67067107,
                4.101e-05,
                -4.065e-05
            ],
            [
                4.101e-05,
                15.67215374,
                -2.32e-06
            ],
            [
                -4.065e-05,
                -2.32e-06,
                23.59344163
            ]
        ],
        "epsilon_ionic_avg": 18.312088813333336,
        "epsilon_ionic_eig": [
            15.67066993634018,
            15.672154873450577,
            23.59344163020925
        ],
        "epsilon_electronic": [
            [
                4.39816379,
                -1.38e-06,
                -0.0
            ],
            [
                1.38e-06,
                4.39816449,
                0.0
            ],
            [
                -0.0,
                0.0,
                4.29469522
            ]
        ],
        "epsilon_electronic_avg": 4.363674500000001,
        "epsilon_electronic_eig": [
            4.39816414,
            4.39816414,
            4.29469522
        ]
    },
    "phonon": {
        "lowest_freq": -0.02792822724792853,
        "frequency": [
            -0.02792822724792853,
            -0.02792822501642148,
            -0.024465494737376702,
            1.0535669169135737,
            1.0535669609886325,
            2.5356310840864147,
            2.626426411856609,
            3.288299203185742,
            3.2882994521717253,
            3.3543422366803437,
            3.3543424953362506,
            4.907746232581678,
            5.28612507147463,
            5.524573780831586,
            5.524574156860784,
            6.478899447603636,
            6.478899485326114,
            7.932246789476243,
            9.257717843648404,
            9.581909778646613,
            9.58191040355367,
            10.239615363072271,
            10.703154612183976,
            10.703154772024785,
            16.030530725673266,
            16.03053118305075,
            17.151684635506736,
            17.410013559126117,
            17.410013769694707,
            21.406291676123086
        ]
    },
    "born_effective_charge": {
        "avg_abs_trace": 2.9606416666666666,
        "tensors": [
            [
                [
                    2.73525,
                    0.00332,
                    -2e-05
                ],
                [
                    -0.00331,
                    2.73542,
                    -1e-05
                ],
                [
                    0.0,
                    -0.0,
                    2.59332
                ]
            ],
            [
                [
                    2.73528,
                    0.0033,
                    -3e-05
                ],
                [
                    -0.00329,
                    2.73543,
                    -0.0
                ],
                [
                    0.0,
                    0.0,
                    2.5933
                ]
            ],
            [
                [
                    4.44473,
                    0.17822,
                    3e-05
                ],
                [
                    -0.1782,
                    4.4449,
                    1e-05
                ],
                [
                    0.0,
                    -0.0,
                    4.16483
                ]
            ],
            [
                [
                    5.0467,
                    -0.13485,
                    -8e-05
                ],
                [
                    0.13488,
                    5.04679,
                    -0.0
                ],
                [
                    0.0,
                    -0.0,
                    5.13368
                ]
            ],
            [
                [
                    -2.70869,
                    0.41185,
                    -0.59502
                ],
                [
                    0.42856,
                    -2.27865,
                    0.38374
                ],
                [
                    -0.63283,
                    0.35036,
                    -2.4142
                ]
            ],
            [
                [
                    -2.75015,
                    -0.40475,
                    0.62992
                ],
                [
                    -0.38806,
                    -2.23737,
                    0.32346
                ],
                [
                    0.61986,
                    0.37281,
                    -2.41418
                ]
            ],
            [
                [
                    -2.02212,
                    -0.03214,
                    -0.03484
                ],
                [
                    -0.01553,
                    -2.96522,
                    -0.70721
                ],
                [
                    0.01299,
                    -0.72323,
                    -2.4142
                ]
            ],
            [
                [
                    -2.02214,
                    -0.03213,
                    -0.0348
                ],
                [
                    -0.01552,
                    -2.96524,
                    -0.70721
                ],
                [
                    0.01293,
                    -0.72322,
                    -2.41418
                ]
            ],
            [
                [
                    -2.75012,
                    -0.40473,
                    0.62988
                ],
                [
                    -0.38807,
                    -2.23737,
                    0.32346
                ],
                [
                    0.61984,
                    0.37287,
                    -2.4142
                ]
            ],
            [
                [
                    -2.70873,
                    0.41191,
                    -0.59504
                ],
                [
                    0.42854,
                    -2.27868,
                    0.38375
                ],
                [
                    -0.63279,
                    0.35041,
                    -2.41418
                ]
            ]
        ]
    },
    "band_gap": 4.09,
    "is_direct": false,
    "formula": "Ba2LaSbO6"
}