{
    "mp_id": "mp-554959",
    "nelements": 4,
    "nsites": 13,
    "elements": [
        "Al",
        "K",
        "O",
        "Sb"
    ],
    "structure": {
        "@module": "pymatgen.core.structure",
        "@class": "Structure",
        "charge": null,
        "lattice": {
            "matrix": [
                [
                    5.66143987,
                    0.0,
                    0.0
                ],
                [
                    -2.83071994,
                    4.90295117,
                    0.0
                ],
                [
                    0.0,
                    0.0,
                    8.12093358
                ]
            ],
            "a": 5.66143987,
            "b": 5.661440236734639,
            "c": 8.12093358,
            "alpha": 90.0,
            "beta": 90.0,
            "gamma": 119.9999979156034,
            "volume": 225.4189515567498
        },
        "sites": [
            {
                "species": [
                    {
                        "element": "K",
                        "occu": 1
                    }
                ],
                "abc": [
                    0.666667,
                    0.333333,
                    0.40914614
                ],
                "xyz": [
                    2.8307227640532697,
                    1.63431542234961,
                    3.3226486274533813
                ],
                "label": "K",
                "properties": {}
            },
            {
                "species": [
                    {
                        "element": "K",
                        "occu": 1
                    }
                ],
                "abc": [
                    0.333333,
                    0.666667,
                    0.59085386
                ],
                "xyz": [
                    -2.8340532700621424e-06,
                    3.2686357476503898,
                    4.798284952546619
                ],
                "label": "K",
                "properties": {}
            },
            {
                "species": [
                    {
                        "element": "Al",
                        "occu": 1
                    }
                ],
                "abc": [
                    0.0,
                    0.0,
                    0.21193639
                ],
                "xyz": [
                    0.0,
                    0.0,
                    1.7211213463749764
                ],
                "label": "Al",
                "properties": {}
            },
            {
                "species": [
                    {
                        "element": "Al",
                        "occu": 1
                    }
                ],
                "abc": [
                    0.0,
                    0.0,
                    0.78806361
                ],
                "xyz": [
                    0.0,
                    0.0,
                    6.399812233625025
                ],
                "label": "Al",
                "properties": {}
            },
            {
                "species": [
                    {
                        "element": "Sb",
                        "occu": 1
                    }
                ],
                "abc": [
                    0.666667,
                    0.333333,
                    0.84556147
                ],
                "xyz": [
                    2.8307227640532697,
                    1.63431542234961,
                    6.866748535677163
                ],
                "label": "Sb",
                "properties": {}
            },
            {
                "species": [
                    {
                        "element": "Sb",
                        "occu": 1
                    }
                ],
                "abc": [
                    0.333333,
                    0.666667,
                    0.15443853
                ],
                "xyz": [
                    -2.8340532700621424e-06,
                    3.2686357476503898,
                    1.2541850443228375
                ],
                "label": "Sb",
                "properties": {}
            },
            {
                "species": [
                    {
                        "element": "O",
                        "occu": 1
                    }
                ],
                "abc": [
                    0.16863711,
                    0.83136289,
                    0.29117751
                ],
                "xyz": [
                    -1.3986266519834505,
                    4.076131654220081,
                    2.364633218699786
                ],
                "label": "O",
                "properties": {}
            },
            {
                "species": [
                    {
                        "element": "O",
                        "occu": 1
                    }
                ],
                "abc": [
                    0.83136289,
                    0.16863711,
                    0.70882249
                ],
                "xyz": [
                    4.22934658198345,
                    0.8268195157799186,
                    5.756300361300214
                ],
                "label": "O",
                "properties": {}
            },
            {
                "species": [
                    {
                        "element": "O",
                        "occu": 1
                    }
                ],
                "abc": [
                    0.33727523,
                    0.16863711,
                    0.70882249
                ],
                "xyz": [
                    1.4320990043844466,
                    0.8268195157799186,
                    5.756300361300214
                ],
                "label": "O",
                "properties": {}
            },
            {
                "species": [
                    {
                        "element": "O",
                        "occu": 1
                    }
                ],
                "abc": [
                    0.16863711,
                    0.33727523,
                    0.29117751
                ],
                "xyz": [
                    -2.8607135104108394e-06,
                    1.653643983540519,
                    2.364633218699786
                ],
                "label": "O",
                "properties": {}
            },
            {
                "species": [
                    {
                        "element": "O",
                        "occu": 1
                    }
                ],
                "abc": [
                    0.0,
                    0.0,
                    0.0
                ],
                "xyz": [
                    0.0,
                    0.0,
                    0.0
                ],
                "label": "O",
                "properties": {}
            },
            {
                "species": [
                    {
                        "element": "O",
                        "occu": 1
                    }
                ],
                "abc": [
                    0.66272477,
                    0.83136289,
                    0.29117751
                ],
                "xyz": [
                    1.3986209256155533,
                    4.076131654220081,
                    2.364633218699786
                ],
                "label": "O",
                "properties": {}
            },
            {
                "species": [
                    {
                        "element": "O",
                        "occu": 1
                    }
                ],
                "abc": [
                    0.83136289,
                    0.66272477,
                    0.70882249
                ],
                "xyz": [
                    2.83072279071351,
                    3.2493071864594807,
                    5.756300361300214
                ],
                "label": "O",
                "properties": {}
            }
        ]
    },
    "spacegroup": {
        "source": "spglib",
        "symbol": "P-3m1",
        "number": 164,
        "point_group": "-3m",
        "crystal_system": "trigonal",
        "hall": "-P 3 2\""
    },
    "dielectric": {
        "epsilon_ionic": [
            [
                6.12548027,
                -6e-08,
                -0.0
            ],
            [
                -6e-08,
                6.12555931,
                -0.00013569
            ],
            [
                -0.0,
                -0.00013569,
                2.28142886
            ]
        ],
        "epsilon_ionic_avg": 4.844156146666667,
        "epsilon_ionic_eig": [
            6.125480269954454,
            6.1255593148351295,
            2.2814288552104185
        ],
        "epsilon_electronic": [
            [
                3.32466378,
                0.0,
                0.0
            ],
            [
                0.0,
                3.32466396,
                0.0
            ],
            [
                -0.0,
                0.0,
                2.89899158
            ]
        ],
        "epsilon_electronic_avg": 3.182773106666667,
        "epsilon_electronic_eig": [
            3.32466378,
            3.32466396,
            2.89899158
        ]
    },
    "phonon": {
        "lowest_freq": -0.027734993405443952,
        "frequency": [
            -0.027734993405443952,
            -0.027734992612365984,
            -0.01515789680032286,
            1.0037602108658623,
            1.1640950392480238,
            1.1640950717900573,
            1.2374247550404758,
            2.5238828245268934,
            2.523882882627878,
            2.9300886754610684,
            2.930088754701033,
            3.5689817285867727,
            3.6093482576891143,
            3.6093483592587514,
            3.8949417954201477,
            4.29191179152181,
            6.54191513018787,
            6.5419152422652,
            6.691327527165437,
            7.38106006185997,
            7.38106019430714,
            10.120115986556815,
            10.120116083156551,
            10.611821176040575,
            10.611821314226166,
            12.576847163474921,
            15.595823650074625,
            15.595823853795938,
            15.820189149569718,
            15.888655589180217,
            15.888655819911001,
            19.50271943744916,
            21.930385347016042,
            21.930385737068672,
            21.938948172476607,
            21.93894850667694,
            24.30822917235906,
            24.679595275585044,
            29.601156257977724
        ]
    },
    "born_effective_charge": {
        "avg_abs_trace": 1.916153076923077,
        "tensors": [
            [
                [
                    1.13544,
                    -5e-05,
                    -1e-05
                ],
                [
                    -0.0,
                    1.13535,
                    -0.00015
                ],
                [
                    0.0,
                    0.0,
                    1.40437
                ]
            ],
            [
                [
                    1.13544,
                    5e-05,
                    1e-05
                ],
                [
                    -0.0,
                    1.13533,
                    -0.00015
                ],
                [
                    0.0,
                    0.0,
                    1.4041
                ]
            ],
            [
                [
                    3.04552,
                    7e-05,
                    0.00011
                ],
                [
                    -0.0,
                    3.04537,
                    6e-05
                ],
                [
                    0.0,
                    0.0,
                    1.90225
                ]
            ],
            [
                [
                    3.04552,
                    -7e-05,
                    -0.00011
                ],
                [
                    -0.0,
                    3.04538,
                    0.00019
                ],
                [
                    0.0,
                    0.0,
                    1.90222
                ]
            ],
            [
                [
                    2.57938,
                    0.00065,
                    -2e-05
                ],
                [
                    -0.0,
                    2.57941,
                    0.00012
                ],
                [
                    0.0,
                    0.0,
                    1.85538
                ]
            ],
            [
                [
                    2.57938,
                    -0.00065,
                    2e-05
                ],
                [
                    -0.0,
                    2.57931,
                    1e-05
                ],
                [
                    0.0,
                    0.0,
                    1.85581
                ]
            ],
            [
                [
                    -2.38143,
                    0.73165,
                    0.39814
                ],
                [
                    0.73145,
                    -1.53675,
                    -0.22996
                ],
                [
                    0.14875,
                    -0.08588,
                    -1.39579
                ]
            ],
            [
                [
                    -2.38162,
                    0.7316,
                    0.3986
                ],
                [
                    0.73166,
                    -1.53671,
                    -0.23003
                ],
                [
                    0.14915,
                    -0.08611,
                    -1.39558
                ]
            ],
            [
                [
                    -2.38143,
                    -0.73165,
                    -0.39814
                ],
                [
                    -0.73166,
                    -1.53671,
                    -0.23003
                ],
                [
                    -0.14915,
                    -0.08611,
                    -1.39558
                ]
            ],
            [
                [
                    -1.11478,
                    -0.00018,
                    0.00032
                ],
                [
                    0.0,
                    -2.80384,
                    0.46001
                ],
                [
                    0.0,
                    0.17176,
                    -1.39579
                ]
            ],
            [
                [
                    -1.76504,
                    -0.0,
                    0.0
                ],
                [
                    -0.0,
                    -1.76526,
                    -0.00012
                ],
                [
                    0.0,
                    0.0,
                    -1.95005
                ]
            ],
            [
                [
                    -2.38162,
                    -0.7316,
                    -0.3986
                ],
                [
                    -0.73145,
                    -1.53675,
                    -0.22996
                ],
                [
                    -0.14875,
                    -0.08588,
                    -1.39579
                ]
            ],
            [
                [
                    -1.11478,
                    0.00018,
                    -0.00032
                ],
                [
                    -0.0,
                    -2.80413,
                    0.46001
                ],
                [
                    0.0,
                    0.17223,
                    -1.39558
                ]
            ]
        ]
    },
    "band_gap": 3.4050000000000002,
    "is_direct": false,
    "formula": "K2Al2Sb2O7"
}