{
    "mp_id": "mp-504806",
    "nelements": 4,
    "nsites": 33,
    "elements": [
        "K",
        "Li",
        "O",
        "Pb"
    ],
    "structure": {
        "@module": "pymatgen.core.structure",
        "@class": "Structure",
        "charge": null,
        "lattice": {
            "matrix": [
                [
                    -3.65469519,
                    3.99955413,
                    6.39978113
                ],
                [
                    3.65469519,
                    -3.99955413,
                    6.39978113
                ],
                [
                    3.65469519,
                    3.99955413,
                    -6.39978113
                ]
            ],
            "a": 8.385131405202502,
            "b": 8.385131405202502,
            "c": 8.385131405202502,
            "alpha": 128.32067235117643,
            "beta": 123.02308773956024,
            "gamma": 80.50049538957882,
            "volume": 374.18627474745574
        },
        "sites": [
            {
                "species": [
                    {
                        "element": "K",
                        "occu": 1
                    }
                ],
                "abc": [
                    0.5,
                    0.25043733,
                    0.75043733
                ],
                "xyz": [
                    1.8305442106948853,
                    3.99955413,
                    0.0
                ],
                "label": "K",
                "properties": {}
            },
            {
                "species": [
                    {
                        "element": "K",
                        "occu": 1
                    }
                ],
                "abc": [
                    0.5,
                    0.74956267,
                    0.24956267
                ],
                "xyz": [
                    1.8241509793051147,
                    -1.1102230246251565e-16,
                    6.399781129999999
                ],
                "label": "K",
                "properties": {}
            },
            {
                "species": [
                    {
                        "element": "Li",
                        "occu": 1
                    }
                ],
                "abc": [
                    0.8422291,
                    0.5,
                    0.3422291
                ],
                "xyz": [
                    2.220446049250313e-16,
                    2.737527620622366,
                    6.39978113
                ],
                "label": "Li",
                "properties": {}
            },
            {
                "species": [
                    {
                        "element": "Li",
                        "occu": 1
                    }
                ],
                "abc": [
                    0.1577709,
                    0.5,
                    0.6577709
                ],
                "xyz": [
                    3.65469519,
                    1.262026509377634,
                    -8.881784197001252e-16
                ],
                "label": "Li",
                "properties": {}
            },
            {
                "species": [
                    {
                        "element": "Li",
                        "occu": 1
                    }
                ],
                "abc": [
                    0.4145704,
                    0.76984258,
                    0.64472881
                ],
                "xyz": [
                    3.6546988081482388,
                    1.157697459972382,
                    3.4538605673257115
                ],
                "label": "Li",
                "properties": {}
            },
            {
                "species": [
                    {
                        "element": "Li",
                        "occu": 1
                    }
                ],
                "abc": [
                    0.5854296,
                    0.23015742,
                    0.35527119
                ],
                "xyz": [
                    -3.618148237904961e-06,
                    2.841856670027618,
                    2.945920562674288
                ],
                "label": "Li",
                "properties": {}
            },
            {
                "species": [
                    {
                        "element": "Li",
                        "occu": 1
                    }
                ],
                "abc": [
                    0.87488623,
                    0.23015742,
                    0.64472881
                ],
                "xyz": [
                    0.0,
                    5.157255549530971,
                    2.9459142268909693
                ],
                "label": "Li",
                "properties": {}
            },
            {
                "species": [
                    {
                        "element": "Li",
                        "occu": 1
                    }
                ],
                "abc": [
                    0.12511377,
                    0.76984258,
                    0.35527119
                ],
                "xyz": [
                    3.6546951900000004,
                    -1.1577014195309707,
                    3.453866903109031
                ],
                "label": "Li",
                "properties": {}
            },
            {
                "species": [
                    {
                        "element": "Li",
                        "occu": 1
                    }
                ],
                "abc": [
                    0.7083475,
                    0.59249537,
                    0.57001736
                ],
                "xyz": [
                    1.6598354815462435,
                    2.7431721513704943,
                    4.677123308220626
                ],
                "label": "Li",
                "properties": {}
            },
            {
                "species": [
                    {
                        "element": "Li",
                        "occu": 1
                    }
                ],
                "abc": [
                    0.2916525,
                    0.86166986,
                    0.88414687
                ],
                "xyz": [
                    5.314527016851054,
                    1.256377979075376,
                    1.7226642215605024
                ],
                "label": "Li",
                "properties": {}
            },
            {
                "species": [
                    {
                        "element": "Li",
                        "occu": 1
                    }
                ],
                "abc": [
                    0.97752299,
                    0.40750463,
                    0.11585313
                ],
                "xyz": [
                    -1.6598354815462437,
                    2.7431801504787536,
                    8.122438951779374
                ],
                "label": "Li",
                "properties": {}
            },
            {
                "species": [
                    {
                        "element": "Li",
                        "occu": 1
                    }
                ],
                "abc": [
                    0.02247701,
                    0.13833014,
                    0.42998264
                ],
                "xyz": [
                    1.9948633631489465,
                    1.2563779790753764,
                    -1.722664221560504
                ],
                "label": "Li",
                "properties": {}
            },
            {
                "species": [
                    {
                        "element": "Li",
                        "occu": 1
                    }
                ],
                "abc": [
                    0.2916525,
                    0.40750463,
                    0.42998264
                ],
                "xyz": [
                    1.9948597084537565,
                    1.2563819786295065,
                    1.7226578217793738
                ],
                "label": "Li",
                "properties": {}
            },
            {
                "species": [
                    {
                        "element": "Li",
                        "occu": 1
                    }
                ],
                "abc": [
                    0.7083475,
                    0.13833014,
                    0.11585313
                ],
                "xyz": [
                    -1.6598318268510537,
                    2.743176150924624,
                    4.677116908439497
                ],
                "label": "Li",
                "properties": {}
            },
            {
                "species": [
                    {
                        "element": "Li",
                        "occu": 1
                    }
                ],
                "abc": [
                    0.02247701,
                    0.59249537,
                    0.88414687
                ],
                "xyz": [
                    5.314530671546244,
                    1.2563739795212463,
                    -1.7226578217793747
                ],
                "label": "Li",
                "properties": {}
            },
            {
                "species": [
                    {
                        "element": "Li",
                        "occu": 1
                    }
                ],
                "abc": [
                    0.97752299,
                    0.86166986,
                    0.57001736
                ],
                "xyz": [
                    1.659831826851054,
                    2.7431761509246235,
                    8.122445351560504
                ],
                "label": "Li",
                "properties": {}
            },
            {
                "species": [
                    {
                        "element": "Pb",
                        "occu": 1
                    }
                ],
                "abc": [
                    0.72906338,
                    0.72906338,
                    0.0
                ],
                "xyz": [
                    0.0,
                    0.0,
                    9.331692123796039
                ],
                "label": "Pb",
                "properties": {}
            },
            {
                "species": [
                    {
                        "element": "Pb",
                        "occu": 1
                    }
                ],
                "abc": [
                    0.27093662,
                    0.27093662,
                    0.0
                ],
                "xyz": [
                    0.0,
                    0.0,
                    3.4678701362039615
                ],
                "label": "Pb",
                "properties": {}
            },
            {
                "species": [
                    {
                        "element": "Pb",
                        "occu": 1
                    }
                ],
                "abc": [
                    0.0,
                    0.0,
                    0.0
                ],
                "xyz": [
                    0.0,
                    0.0,
                    0.0
                ],
                "label": "Pb",
                "properties": {}
            },
            {
                "species": [
                    {
                        "element": "O",
                        "occu": 1
                    }
                ],
                "abc": [
                    0.74906382,
                    0.04276556,
                    0.29370174
                ],
                "xyz": [
                    -1.507914517054739,
                    3.99955413,
                    3.1879078708034334
                ],
                "label": "O",
                "properties": {}
            },
            {
                "species": [
                    {
                        "element": "O",
                        "occu": 1
                    }
                ],
                "abc": [
                    0.25093618,
                    0.54463792,
                    0.29370174
                ],
                "xyz": [
                    2.146780672945261,
                    -2.220446049250313e-16,
                    3.2118732591965675
                ],
                "label": "O",
                "properties": {}
            },
            {
                "species": [
                    {
                        "element": "O",
                        "occu": 1
                    }
                ],
                "abc": [
                    0.25093618,
                    0.95723444,
                    0.70629826
                ],
                "xyz": [
                    5.162609707054738,
                    -8.881784197001252e-16,
                    3.211873259196567
                ],
                "label": "O",
                "properties": {}
            },
            {
                "species": [
                    {
                        "element": "O",
                        "occu": 1
                    }
                ],
                "abc": [
                    0.74906382,
                    0.45536208,
                    0.70629826
                ],
                "xyz": [
                    1.5079145170547383,
                    3.99955413,
                    3.187907870803433
                ],
                "label": "O",
                "properties": {}
            },
            {
                "species": [
                    {
                        "element": "O",
                        "occu": 1
                    }
                ],
                "abc": [
                    0.0,
                    0.70366051,
                    0.70366051
                ],
                "xyz": [
                    5.143329362579894,
                    0.0,
                    0.0
                ],
                "label": "O",
                "properties": {}
            },
            {
                "species": [
                    {
                        "element": "O",
                        "occu": 1
                    }
                ],
                "abc": [
                    0.0,
                    0.29633949,
                    0.29633949
                ],
                "xyz": [
                    2.1660610174201063,
                    0.0,
                    0.0
                ],
                "label": "O",
                "properties": {}
            },
            {
                "species": [
                    {
                        "element": "O",
                        "occu": 1
                    }
                ],
                "abc": [
                    0.68586148,
                    0.8717458,
                    0.81411568
                ],
                "xyz": [
                    3.65469519,
                    2.512645330483517,
                    4.758183511993509
                ],
                "label": "O",
                "properties": {}
            },
            {
                "species": [
                    {
                        "element": "O",
                        "occu": 1
                    }
                ],
                "abc": [
                    0.31413852,
                    0.1282542,
                    0.18588432
                ],
                "xyz": [
                    0.0,
                    1.4869087995164831,
                    1.641597618006492
                ],
                "label": "O",
                "properties": {}
            },
            {
                "species": [
                    {
                        "element": "O",
                        "occu": 1
                    }
                ],
                "abc": [
                    0.94236989,
                    0.1282542,
                    0.81411568
                ],
                "xyz": [
                    -3.654695168719968e-08,
                    6.512199500479058,
                    1.6415976820043037
                ],
                "label": "O",
                "properties": {}
            },
            {
                "species": [
                    {
                        "element": "O",
                        "occu": 1
                    }
                ],
                "abc": [
                    0.05763011,
                    0.8717458,
                    0.18588432
                ],
                "xyz": [
                    3.654695226546952,
                    -2.512645370479058,
                    4.758183447995696
                ],
                "label": "O",
                "properties": {}
            },
            {
                "species": [
                    {
                        "element": "O",
                        "occu": 1
                    }
                ],
                "abc": [
                    0.41038651,
                    0.62715534,
                    0.78323118
                ],
                "xyz": [
                    3.6546952265469512,
                    2.2655968314320063,
                    1.6275326270236565
                ],
                "label": "O",
                "properties": {}
            },
            {
                "species": [
                    {
                        "element": "O",
                        "occu": 1
                    }
                ],
                "abc": [
                    0.58961349,
                    0.37284466,
                    0.21676882
                ],
                "xyz": [
                    -3.654695168719968e-08,
                    1.7339572985679945,
                    4.772248502976343
                ],
                "label": "O",
                "properties": {}
            },
            {
                "species": [
                    {
                        "element": "O",
                        "occu": 1
                    }
                ],
                "abc": [
                    0.15607584,
                    0.37284466,
                    0.78323118
                ],
                "xyz": [
                    3.65469519,
                    2.2655968714275474,
                    -1.627532691021469
                ],
                "label": "O",
                "properties": {}
            },
            {
                "species": [
                    {
                        "element": "O",
                        "occu": 1
                    }
                ],
                "abc": [
                    0.84392416,
                    0.62715534,
                    0.21676882
                ],
                "xyz": [
                    -4.440892098500626e-16,
                    1.7339572585724539,
                    8.027313821021467
                ],
                "label": "O",
                "properties": {}
            }
        ]
    },
    "spacegroup": {
        "source": "spglib",
        "symbol": "Immm",
        "number": 71,
        "point_group": "mmm",
        "crystal_system": "orthorhombic",
        "hall": "-I 2 2"
    },
    "dielectric": {
        "epsilon_ionic": [
            [
                5.82015441,
                0.0,
                -0.0
            ],
            [
                0.0,
                7.96128493,
                -0.0
            ],
            [
                -0.0,
                -0.0,
                12.52152886
            ]
        ],
        "epsilon_ionic_avg": 8.767656066666666,
        "epsilon_ionic_eig": [
            5.82015441,
            7.96128493,
            12.52152886
        ],
        "epsilon_electronic": [
            [
                3.71430136,
                0.0,
                0.0
            ],
            [
                0.0,
                3.47402861,
                0.0
            ],
            [
                0.0,
                0.0,
                3.73614534
            ]
        ],
        "epsilon_electronic_avg": 3.64149177,
        "epsilon_electronic_eig": [
            3.71430136,
            3.47402861,
            3.73614534
        ]
    },
    "phonon": {
        "lowest_freq": -0.11684105547360943,
        "frequency": [
            -0.11684105547360943,
            -0.03927128724462205,
            -0.034648736129404174,
            1.5081058048856897,
            1.9326848202012745,
            2.096790613452166,
            2.324562513884151,
            2.683635534765132,
            2.908932368811159,
            2.9896542247822606,
            3.097778748073836,
            3.3872933351856447,
            3.617832956704576,
            3.8896529335624757,
            3.907998287545036,
            4.214458381922495,
            4.414106635361896,
            5.580646356498525,
            5.676487325843575,
            6.187326157381817,
            6.1884406516696995,
            6.411276541986637,
            6.414578629699886,
            6.523199838046868,
            6.678869628959219,
            6.786282031862306,
            7.0884960391322736,
            7.153542643400699,
            7.212696934319034,
            7.226140125759553,
            7.313500389590462,
            7.362480414879343,
            7.650015118330707,
            7.7575867423282014,
            7.8791489399362,
            8.108980335360009,
            8.450230568613087,
            8.453824889870575,
            8.45960482852265,
            8.98954480273761,
            9.221258306929338,
            9.43945588089868,
            9.489695915297922,
            9.649474219046208,
            9.719432563410335,
            9.852056202583103,
            9.918811915092075,
            10.29832673995518,
            10.426149001494752,
            10.448521689775337,
            11.060752033265036,
            11.205368622661178,
            11.297162491566985,
            11.775374932614191,
            11.947118427540662,
            11.957607857766442,
            11.98849532477897,
            12.578588529185724,
            12.585101332952807,
            12.789271688417061,
            12.953859032340057,
            13.36788508772966,
            13.412229376406183,
            13.527670131610892,
            13.713114212043036,
            13.838820994975443,
            14.074311647511418,
            14.267429800888413,
            14.37890627298498,
            14.753834014032469,
            14.922528485255615,
            15.03763324504508,
            15.231759665576414,
            15.246707321624037,
            15.273555597905004,
            15.278409560279524,
            15.335823411594578,
            15.458587007501498,
            15.52471889400612,
            15.612186166377157,
            15.628692372841456,
            15.914853238016953,
            15.915421119823964,
            16.100735908267477,
            16.526499187963182,
            16.546342226807912,
            16.62310548218449,
            16.80825782513979,
            16.867971723409163,
            16.980352251564984,
            17.166329907296525,
            17.376650128055623,
            17.400722829556297,
            17.554079169743062,
            17.788830785948626,
            18.46655124239169,
            18.769412760875905,
            19.975819580166164,
            20.409753077071244
        ]
    },
    "born_effective_charge": {
        "avg_abs_trace": 1.6238462626262626,
        "tensors": [
            [
                [
                    1.06836,
                    0.0,
                    0.0
                ],
                [
                    0.0,
                    1.21191,
                    -0.0
                ],
                [
                    -2e-05,
                    -0.0,
                    1.40081
                ]
            ],
            [
                [
                    1.06838,
                    -0.0,
                    0.0
                ],
                [
                    -0.0,
                    1.21191,
                    -0.0
                ],
                [
                    2e-05,
                    0.0,
                    1.40081
                ]
            ],
            [
                [
                    1.08496,
                    4e-05,
                    0.0
                ],
                [
                    0.0,
                    1.07082,
                    0.0
                ],
                [
                    0.0,
                    2e-05,
                    1.24036
                ]
            ],
            [
                [
                    1.08496,
                    -4e-05,
                    0.0
                ],
                [
                    0.0,
                    1.07078,
                    0.0
                ],
                [
                    0.0,
                    -2e-05,
                    1.24036
                ]
            ],
            [
                [
                    1.16733,
                    -5e-05,
                    -2e-05
                ],
                [
                    0.0,
                    1.17796,
                    0.10985
                ],
                [
                    0.0,
                    0.18455,
                    0.74981
                ]
            ],
            [
                [
                    1.16733,
                    5e-05,
                    2e-05
                ],
                [
                    0.0,
                    1.17797,
                    0.10986
                ],
                [
                    0.0,
                    0.18455,
                    0.74979
                ]
            ],
            [
                [
                    1.16733,
                    -5e-05,
                    2e-05
                ],
                [
                    0.0,
                    1.17796,
                    -0.10985
                ],
                [
                    -0.0,
                    -0.18455,
                    0.74979
                ]
            ],
            [
                [
                    1.16733,
                    5e-05,
                    -2e-05
                ],
                [
                    0.0,
                    1.17797,
                    -0.10986
                ],
                [
                    0.0,
                    -0.18455,
                    0.74981
                ]
            ],
            [
                [
                    0.95296,
                    0.25799,
                    -0.0288
                ],
                [
                    0.33489,
                    0.93407,
                    0.05806
                ],
                [
                    0.11532,
                    0.10924,
                    0.89756
                ]
            ],
            [
                [
                    0.95296,
                    -0.25799,
                    0.0288
                ],
                [
                    -0.33488,
                    0.9341,
                    0.05807
                ],
                [
                    -0.11531,
                    0.10922,
                    0.89754
                ]
            ],
            [
                [
                    0.95296,
                    -0.25799,
                    -0.02877
                ],
                [
                    -0.33489,
                    0.93407,
                    -0.05806
                ],
                [
                    0.11531,
                    -0.10922,
                    0.89754
                ]
            ],
            [
                [
                    0.95296,
                    0.25799,
                    0.02877
                ],
                [
                    0.33488,
                    0.9341,
                    -0.05807
                ],
                [
                    -0.11532,
                    -0.10924,
                    0.89756
                ]
            ],
            [
                [
                    0.95296,
                    0.25799,
                    -0.02877
                ],
                [
                    0.33488,
                    0.9341,
                    0.05807
                ],
                [
                    0.11531,
                    0.10922,
                    0.89754
                ]
            ],
            [
                [
                    0.95296,
                    -0.25799,
                    0.02877
                ],
                [
                    -0.33489,
                    0.93407,
                    0.05806
                ],
                [
                    -0.11532,
                    0.10924,
                    0.89756
                ]
            ],
            [
                [
                    0.95296,
                    -0.25799,
                    -0.0288
                ],
                [
                    -0.33488,
                    0.9341,
                    -0.05807
                ],
                [
                    0.11532,
                    -0.10924,
                    0.89756
                ]
            ],
            [
                [
                    0.95296,
                    0.25799,
                    0.0288
                ],
                [
                    0.33489,
                    0.93407,
                    -0.05806
                ],
                [
                    -0.11531,
                    -0.10922,
                    0.89754
                ]
            ],
            [
                [
                    3.34922,
                    -0.0,
                    -1e-05
                ],
                [
                    0.0,
                    3.18139,
                    0.0001
                ],
                [
                    0.0,
                    0.0,
                    3.92778
                ]
            ],
            [
                [
                    3.34922,
                    0.0,
                    1e-05
                ],
                [
                    0.0,
                    3.18139,
                    -0.0001
                ],
                [
                    0.0,
                    0.0,
                    3.92776
                ]
            ],
            [
                [
                    3.52924,
                    0.0,
                    0.0
                ],
                [
                    0.0,
                    2.42296,
                    0.0
                ],
                [
                    0.0,
                    0.0,
                    4.69986
                ]
            ],
            [
                [
                    -2.41432,
                    -0.0,
                    0.00604
                ],
                [
                    4e-05,
                    -1.6895,
                    1e-05
                ],
                [
                    0.14981,
                    0.0,
                    -1.50482
                ]
            ],
            [
                [
                    -2.41432,
                    0.0,
                    -0.00604
                ],
                [
                    4e-05,
                    -1.6895,
                    -1e-05
                ],
                [
                    -0.14993,
                    0.0,
                    -1.50483
                ]
            ],
            [
                [
                    -2.4144,
                    0.0,
                    0.00606
                ],
                [
                    -4e-05,
                    -1.6895,
                    -1e-05
                ],
                [
                    0.14993,
                    -0.0,
                    -1.50483
                ]
            ],
            [
                [
                    -2.4144,
                    -0.0,
                    -0.00606
                ],
                [
                    -4e-05,
                    -1.6895,
                    1e-05
                ],
                [
                    -0.14981,
                    -0.0,
                    -1.50482
                ]
            ],
            [
                [
                    -2.38075,
                    0.0,
                    -0.0
                ],
                [
                    -0.00012,
                    -1.6021,
                    0.0
                ],
                [
                    5e-05,
                    0.0,
                    -1.89843
                ]
            ],
            [
                [
                    -2.38027,
                    0.0,
                    0.0
                ],
                [
                    0.00012,
                    -1.6021,
                    0.0
                ],
                [
                    -5e-05,
                    0.0,
                    -1.89843
                ]
            ],
            [
                [
                    -1.5049,
                    0.0001,
                    3e-05
                ],
                [
                    -0.0,
                    -1.79619,
                    -0.19409
                ],
                [
                    0.0,
                    -0.19646,
                    -2.44543
                ]
            ],
            [
                [
                    -1.5049,
                    -0.0001,
                    -3e-05
                ],
                [
                    0.0,
                    -1.79625,
                    -0.19419
                ],
                [
                    -0.0,
                    -0.1965,
                    -2.4454
                ]
            ],
            [
                [
                    -1.5049,
                    0.0001,
                    -3e-05
                ],
                [
                    0.0,
                    -1.79619,
                    0.19409
                ],
                [
                    0.0,
                    0.1965,
                    -2.4454
                ]
            ],
            [
                [
                    -1.5049,
                    -0.0001,
                    3e-05
                ],
                [
                    -0.0,
                    -1.79625,
                    0.19419
                ],
                [
                    0.0,
                    0.19646,
                    -2.44543
                ]
            ],
            [
                [
                    -1.59732,
                    6e-05,
                    5e-05
                ],
                [
                    -0.0,
                    -2.09715,
                    -0.43102
                ],
                [
                    0.0,
                    -0.49097,
                    -2.10494
                ]
            ],
            [
                [
                    -1.59732,
                    -6e-05,
                    -5e-05
                ],
                [
                    0.0,
                    -2.09716,
                    -0.43111
                ],
                [
                    0.0,
                    -0.49102,
                    -2.10483
                ]
            ],
            [
                [
                    -1.59732,
                    6e-05,
                    -5e-05
                ],
                [
                    0.0,
                    -2.09715,
                    0.43102
                ],
                [
                    0.0,
                    0.49102,
                    -2.10483
                ]
            ],
            [
                [
                    -1.59732,
                    -6e-05,
                    5e-05
                ],
                [
                    0.0,
                    -2.09716,
                    0.43111
                ],
                [
                    -0.0,
                    0.49097,
                    -2.10494
                ]
            ]
        ]
    },
    "band_gap": 2.0338,
    "is_direct": false,
    "formula": "K2Li14Pb3O14"
}