{
    "mp_id": "mp-551092",
    "nelements": 4,
    "nsites": 10,
    "elements": [
        "K",
        "Li",
        "O",
        "Zn"
    ],
    "structure": {
        "@module": "pymatgen.core.structure",
        "@class": "Structure",
        "charge": null,
        "lattice": {
            "matrix": [
                [
                    5.35726288,
                    -1.65569334,
                    -0.00040063
                ],
                [
                    5.35726288,
                    1.65569334,
                    -0.00040063
                ],
                [
                    -4.03933208,
                    0.0,
                    7.09023749
                ]
            ],
            "a": 5.607279747083308,
            "b": 5.607279747083308,
            "c": 8.160126917954072,
            "alpha": 118.22915627843308,
            "beta": 118.22915627843308,
            "gamma": 34.34813815927647,
            "volume": 125.77523412171897
        },
        "sites": [
            {
                "species": [
                    {
                        "element": "K",
                        "occu": 1
                    }
                ],
                "abc": [
                    0.1648712,
                    0.1648712,
                    0.12965822
                ],
                "xyz": [
                    1.2427841120004146,
                    0.0,
                    0.9191754676329558
                ],
                "label": "K",
                "properties": {}
            },
            {
                "species": [
                    {
                        "element": "K",
                        "occu": 1
                    }
                ],
                "abc": [
                    0.8351288,
                    0.8351288,
                    0.87034178
                ],
                "xyz": [
                    5.432409567999586,
                    0.0,
                    6.170260762367044
                ],
                "label": "K",
                "properties": {}
            },
            {
                "species": [
                    {
                        "element": "Li",
                        "occu": 1
                    }
                ],
                "abc": [
                    0.65844297,
                    0.65844297,
                    0.44463528
                ],
                "xyz": [
                    5.258874613152124,
                    0.0,
                    3.1520421476185048
                ],
                "label": "Li",
                "properties": {}
            },
            {
                "species": [
                    {
                        "element": "Li",
                        "occu": 1
                    }
                ],
                "abc": [
                    0.34155703,
                    0.34155703,
                    0.55536472
                ],
                "xyz": [
                    1.416319066847875,
                    0.0,
                    3.937394082381495
                ],
                "label": "Li",
                "properties": {}
            },
            {
                "species": [
                    {
                        "element": "Zn",
                        "occu": 1
                    }
                ],
                "abc": [
                    0.9586424,
                    0.9586424,
                    0.32145023
                ],
                "xyz": [
                    8.972954463265847,
                    0.0,
                    2.2783903501056986
                ],
                "label": "Zn",
                "properties": {}
            },
            {
                "species": [
                    {
                        "element": "Zn",
                        "occu": 1
                    }
                ],
                "abc": [
                    0.0413576,
                    0.0413576,
                    0.67854977
                ],
                "xyz": [
                    -2.297760783265846,
                    0.0,
                    4.811045879894302
                ],
                "label": "Zn",
                "properties": {}
            },
            {
                "species": [
                    {
                        "element": "O",
                        "occu": 1
                    }
                ],
                "abc": [
                    0.53805831,
                    0.53805831,
                    0.80084963
                ],
                "xyz": [
                    2.5301420211619354,
                    0.0,
                    5.6777829458771585
                ],
                "label": "O",
                "properties": {}
            },
            {
                "species": [
                    {
                        "element": "O",
                        "occu": 1
                    }
                ],
                "abc": [
                    0.46194169,
                    0.46194169,
                    0.19915037
                ],
                "xyz": [
                    4.145051658838065,
                    0.0,
                    1.4116532841228417
                ],
                "label": "O",
                "properties": {}
            },
            {
                "species": [
                    {
                        "element": "O",
                        "occu": 1
                    }
                ],
                "abc": [
                    0.15927605,
                    0.15927605,
                    0.56079508
                ],
                "xyz": [
                    -0.5586702162741182,
                    0.0,
                    3.976042678895726
                ],
                "label": "O",
                "properties": {}
            },
            {
                "species": [
                    {
                        "element": "O",
                        "occu": 1
                    }
                ],
                "abc": [
                    0.84072395,
                    0.84072395,
                    0.43920492
                ],
                "xyz": [
                    7.233863896274118,
                    0.0,
                    3.113393551104274
                ],
                "label": "O",
                "properties": {}
            }
        ]
    },
    "spacegroup": {
        "source": "spglib",
        "symbol": "C2/m",
        "number": 12,
        "point_group": "2/m",
        "crystal_system": "monoclinic",
        "hall": "-C 2y"
    },
    "dielectric": {
        "epsilon_ionic": [
            [
                7.42074865,
                1e-08,
                1.07726955
            ],
            [
                1e-08,
                5.45474177,
                -2e-08
            ],
            [
                1.07726955,
                -2e-08,
                5.84243001
            ]
        ],
        "epsilon_ionic_avg": 6.239306809999999,
        "epsilon_ionic_eig": [
            7.966985194790684,
            5.29619346520931,
            5.454741770000003
        ],
        "epsilon_electronic": [
            [
                3.24009456,
                0.0,
                -0.01122756
            ],
            [
                0.0,
                3.45774207,
                0.0
            ],
            [
                -0.01122759,
                0.0,
                3.307012
            ]
        ],
        "epsilon_electronic_avg": 3.3349495433333334,
        "epsilon_electronic_eig": [
            3.2382610091121866,
            3.3088455508878134,
            3.45774207
        ]
    },
    "phonon": {
        "lowest_freq": -0.06351464105616504,
        "frequency": [
            -0.06351464105616504,
            -0.054383840250708824,
            -0.017596586188152186,
            2.4333025448482672,
            3.0556126802875583,
            3.0986618154552357,
            3.5131750498509478,
            3.55215525595272,
            4.357800828738296,
            4.79326748593374,
            5.270438318984887,
            5.867117423282608,
            7.236289949639072,
            7.317907687530354,
            7.5880986083035085,
            8.502442409819139,
            9.00597024881682,
            9.095073036268923,
            11.239096807430442,
            11.954984096383383,
            12.1632647393384,
            12.816924016647004,
            12.930676926745333,
            13.054545621365413,
            13.639600086250608,
            15.336555845954884,
            16.41506477062478,
            16.707427897649303,
            16.85539593986678,
            18.360184491814987
        ]
    },
    "born_effective_charge": {
        "avg_abs_trace": 1.5294153333333331,
        "tensors": [
            [
                [
                    1.17918,
                    0.0,
                    0.05307
                ],
                [
                    -3e-05,
                    1.07589,
                    -0.0
                ],
                [
                    0.05291,
                    0.0,
                    1.35663
                ]
            ],
            [
                [
                    1.17918,
                    0.0,
                    0.05309
                ],
                [
                    3e-05,
                    1.07589,
                    0.0
                ],
                [
                    0.05294,
                    0.0,
                    1.35659
                ]
            ],
            [
                [
                    1.09659,
                    0.0,
                    0.03853
                ],
                [
                    -7e-05,
                    0.922,
                    8e-05
                ],
                [
                    0.05659,
                    0.0,
                    0.71464
                ]
            ],
            [
                [
                    1.09658,
                    0.0,
                    0.03854
                ],
                [
                    7e-05,
                    0.922,
                    -8e-05
                ],
                [
                    0.05659,
                    0.0,
                    0.71462
                ]
            ],
            [
                [
                    1.46341,
                    0.0,
                    -0.15503
                ],
                [
                    -1e-05,
                    2.11007,
                    1e-05
                ],
                [
                    -0.15356,
                    0.0,
                    1.55233
                ]
            ],
            [
                [
                    1.4635,
                    0.0,
                    -0.15501
                ],
                [
                    1e-05,
                    2.11007,
                    -1e-05
                ],
                [
                    -0.15362,
                    0.0,
                    1.55205
                ]
            ],
            [
                [
                    -1.54355,
                    0.0,
                    0.07494
                ],
                [
                    5e-05,
                    -2.48434,
                    6e-05
                ],
                [
                    0.12451,
                    0.0,
                    -1.82327
                ]
            ],
            [
                [
                    -1.54349,
                    0.0,
                    0.07471
                ],
                [
                    -5e-05,
                    -2.48434,
                    -6e-05
                ],
                [
                    0.12451,
                    0.0,
                    -1.82287
                ]
            ],
            [
                [
                    -2.19575,
                    0.0,
                    -0.01146
                ],
                [
                    0.0001,
                    -1.62363,
                    -0.00014
                ],
                [
                    -0.08046,
                    0.0,
                    -1.80035
                ]
            ],
            [
                [
                    -2.19565,
                    0.0,
                    -0.01139
                ],
                [
                    -0.0001,
                    -1.62363,
                    0.00014
                ],
                [
                    -0.08042,
                    0.0,
                    -1.80037
                ]
            ]
        ]
    },
    "band_gap": 2.5898999999999996,
    "is_direct": true,
    "formula": "KLiZnO2"
}