{
    "mp_id": "mp-560622",
    "nelements": 4,
    "nsites": 32,
    "elements": [
        "B",
        "Ca",
        "La",
        "O"
    ],
    "structure": {
        "@module": "pymatgen.core.structure",
        "@class": "Structure",
        "charge": null,
        "lattice": {
            "matrix": [
                [
                    5.50922784,
                    -3.28090253,
                    0.00078157
                ],
                [
                    5.50922784,
                    3.28090253,
                    0.00078157
                ],
                [
                    -0.2450531,
                    0.0,
                    9.08907853
                ]
            ],
            "a": 6.4121691661436335,
            "b": 6.4121691661436335,
            "c": 9.092381401279127,
            "alpha": 91.31989123793437,
            "beta": 91.31989123793437,
            "gamma": 61.55001252249353,
            "volume": 328.57580035066934
        },
        "sites": [
            {
                "species": [
                    {
                        "element": "Ca",
                        "occu": 1
                    }
                ],
                "abc": [
                    0.18830435,
                    0.81169565,
                    0.5
                ],
                "xyz": [
                    5.386701290000001,
                    2.045286093349989,
                    4.545320835
                ],
                "label": "Ca",
                "properties": {}
            },
            {
                "species": [
                    {
                        "element": "La",
                        "occu": 1
                    }
                ],
                "abc": [
                    0.84122816,
                    0.83588084,
                    0.85874549
                ],
                "xyz": [
                    9.029137349079042,
                    -0.017544035716719808,
                    7.80651597397446
                ],
                "label": "La",
                "properties": {}
            },
            {
                "species": [
                    {
                        "element": "La",
                        "occu": 1
                    }
                ],
                "abc": [
                    0.16411916,
                    0.15877184,
                    0.14125451
                ],
                "xyz": [
                    1.7442652309209592,
                    -0.017544035716719586,
                    1.2841256960255403
                ],
                "label": "La",
                "properties": {}
            },
            {
                "species": [
                    {
                        "element": "B",
                        "occu": 1
                    }
                ],
                "abc": [
                    0.32425326,
                    0.44610823,
                    0.72885391
                ],
                "xyz": [
                    4.06548905747926,
                    0.39979427936607403,
                    6.6252125163172915
                ],
                "label": "B",
                "properties": {}
            },
            {
                "species": [
                    {
                        "element": "B",
                        "occu": 1
                    }
                ],
                "abc": [
                    0.71585514,
                    0.36098717,
                    0.83890622
                ],
                "xyz": [
                    5.726993063721628,
                    -1.1642872205889638,
                    7.625726140529684
                ],
                "label": "B",
                "properties": {}
            },
            {
                "species": [
                    {
                        "element": "B",
                        "occu": 1
                    }
                ],
                "abc": [
                    0.81505423,
                    0.83920563,
                    0.20772002
                ],
                "xyz": [
                    9.06279204047344,
                    0.0792383893630424,
                    1.8892764939119508
                ],
                "label": "B",
                "properties": {}
            },
            {
                "species": [
                    {
                        "element": "B",
                        "occu": 1
                    }
                ],
                "abc": [
                    0.37592548,
                    0.75918589,
                    0.87380222
                ],
                "xyz": [
                    6.039459218306659,
                    1.2574400488178377,
                    7.942944166261787
                ],
                "label": "B",
                "properties": {}
            },
            {
                "species": [
                    {
                        "element": "B",
                        "occu": 1
                    }
                ],
                "abc": [
                    0.21125568,
                    0.25286238,
                    0.52719786
                ],
                "xyz": [
                    2.427740667292425,
                    0.13650752729495097,
                    4.7921054911400995
                ],
                "label": "B",
                "properties": {}
            },
            {
                "species": [
                    {
                        "element": "B",
                        "occu": 1
                    }
                ],
                "abc": [
                    0.24081411,
                    0.62407452,
                    0.12619778
                ],
                "xyz": [
                    4.733943361693342,
                    1.257440048817837,
                    1.1476975037382127
                ],
                "label": "B",
                "properties": {}
            },
            {
                "species": [
                    {
                        "element": "B",
                        "occu": 1
                    }
                ],
                "abc": [
                    0.63901283,
                    0.28414486,
                    0.16109378
                ],
                "xyz": [
                    5.046409516278371,
                    -1.1642872205889638,
                    1.4649155294703167
                ],
                "label": "B",
                "properties": {}
            },
            {
                "species": [
                    {
                        "element": "B",
                        "occu": 1
                    }
                ],
                "abc": [
                    0.74713762,
                    0.78874432,
                    0.47280214
                ],
                "xyz": [
                    8.345661912707575,
                    0.1365075272949512,
                    4.298536178859901
                ],
                "label": "B",
                "properties": {}
            },
            {
                "species": [
                    {
                        "element": "B",
                        "occu": 1
                    }
                ],
                "abc": [
                    0.55389177,
                    0.67574674,
                    0.27114609
                ],
                "xyz": [
                    6.707913522520741,
                    0.39979427936607403,
                    2.4654291536827087
                ],
                "label": "B",
                "properties": {}
            },
            {
                "species": [
                    {
                        "element": "B",
                        "occu": 1
                    }
                ],
                "abc": [
                    0.16079437,
                    0.18494577,
                    0.79227998
                ],
                "xyz": [
                    1.7106105395265596,
                    0.07923838936304206,
                    7.201365176088049
                ],
                "label": "B",
                "properties": {}
            },
            {
                "species": [
                    {
                        "element": "O",
                        "occu": 1
                    }
                ],
                "abc": [
                    0.63464324,
                    0.58913172,
                    0.88753005
                ],
                "xyz": [
                    6.524563089431232,
                    -0.14931886111214565,
                    8.067786787980314
                ],
                "label": "O",
                "properties": {}
            },
            {
                "species": [
                    {
                        "element": "O",
                        "occu": 1
                    }
                ],
                "abc": [
                    0.2957178,
                    0.40758856,
                    0.57112241
                ],
                "xyz": [
                    3.7347196615110914,
                    0.3670370595170229,
                    5.191526117884642
                ],
                "label": "O",
                "properties": {}
            },
            {
                "species": [
                    {
                        "element": "O",
                        "occu": 1
                    }
                ],
                "abc": [
                    0.27519726,
                    0.69413437,
                    0.74531278
                ],
                "xyz": [
                    5.157627594979962,
                    1.3744918241098882,
                    6.774963987354672
                ],
                "label": "O",
                "properties": {}
            },
            {
                "species": [
                    {
                        "element": "O",
                        "occu": 1
                    }
                ],
                "abc": [
                    0.14747983,
                    0.14200285,
                    0.63507341
                ],
                "xyz": [
                    1.4391993320057406,
                    -0.017969437538759347,
                    5.772458346783094
                ],
                "label": "O",
                "properties": {}
            },
            {
                "species": [
                    {
                        "element": "O",
                        "occu": 1
                    }
                ],
                "abc": [
                    0.59241144,
                    0.7042822,
                    0.42887759
                ],
                "xyz": [
                    7.0386829184889095,
                    0.3670370595170227,
                    3.899115552115357
                ],
                "label": "O",
                "properties": {}
            },
            {
                "species": [
                    {
                        "element": "O",
                        "occu": 1
                    }
                ],
                "abc": [
                    0.80811813,
                    0.05109504,
                    0.13313823
                ],
                "xyz": [
                    4.700975180668641,
                    -2.483718971249418,
                    1.2107753630524787
                ],
                "label": "O",
                "properties": {}
            },
            {
                "species": [
                    {
                        "element": "O",
                        "occu": 1
                    }
                ],
                "abc": [
                    0.2341547,
                    0.7658453,
                    0.0
                ],
                "xyz": [
                    5.509227839999999,
                    1.7444250347172179,
                    0.0007815699999999999
                ],
                "label": "O",
                "properties": {}
            },
            {
                "species": [
                    {
                        "element": "O",
                        "occu": 1
                    }
                ],
                "abc": [
                    0.58932598,
                    0.84300963,
                    0.18106637
                ],
                "xyz": [
                    7.846692343561136,
                    0.8323113291046342,
                    1.646845926614744
                ],
                "label": "O",
                "properties": {}
            },
            {
                "species": [
                    {
                        "element": "O",
                        "occu": 1
                    }
                ],
                "abc": [
                    0.85799715,
                    0.85252017,
                    0.36492659
                ],
                "xyz": [
                    9.33420324799426,
                    -0.017969437538759347,
                    3.318183323216905
                ],
                "label": "O",
                "properties": {}
            },
            {
                "species": [
                    {
                        "element": "O",
                        "occu": 1
                    }
                ],
                "abc": [
                    0.94890496,
                    0.19188187,
                    0.86686177
                ],
                "xyz": [
                    6.07242739933136,
                    -2.483718971249418,
                    7.8798663069475205
                ],
                "label": "O",
                "properties": {}
            },
            {
                "species": [
                    {
                        "element": "O",
                        "occu": 1
                    }
                ],
                "abc": [
                    0.30586563,
                    0.72480274,
                    0.25468722
                ],
                "xyz": [
                    5.615774985020039,
                    1.3744918241098885,
                    2.3156776826453274
                ],
                "label": "O",
                "properties": {}
            },
            {
                "species": [
                    {
                        "element": "O",
                        "occu": 1
                    }
                ],
                "abc": [
                    0.19263774,
                    0.19301076,
                    0.38644954
                ],
                "xyz": [
                    2.0299247948836663,
                    0.0012238422617406597,
                    3.5127716282405212
                ],
                "label": "O",
                "properties": {}
            },
            {
                "species": [
                    {
                        "element": "O",
                        "occu": 1
                    }
                ],
                "abc": [
                    0.15699037,
                    0.41067402,
                    0.81893363
                ],
                "xyz": [
                    2.926710236438865,
                    0.8323113291046345,
                    7.443795743385255
                ],
                "label": "O",
                "properties": {}
            },
            {
                "species": [
                    {
                        "element": "O",
                        "occu": 1
                    }
                ],
                "abc": [
                    0.80698924,
                    0.80736226,
                    0.61355046
                ],
                "xyz": [
                    8.743477785116333,
                    0.0012238422617403266,
                    5.577870041759478
                ],
                "label": "O",
                "properties": {}
            },
            {
                "species": [
                    {
                        "element": "O",
                        "occu": 1
                    }
                ],
                "abc": [
                    0.57323112,
                    0.28008559,
                    0.77673548
                ],
                "xyz": [
                    4.510774737815218,
                    -0.9617819110351907,
                    7.060476701498279
                ],
                "label": "O",
                "properties": {}
            },
            {
                "species": [
                    {
                        "element": "O",
                        "occu": 1
                    }
                ],
                "abc": [
                    0.00928147,
                    0.63227291,
                    0.13543864
                ],
                "xyz": [
                    3.5012795925781552,
                    2.043974191664343,
                    1.2315138546131756
                ],
                "label": "O",
                "properties": {}
            },
            {
                "species": [
                    {
                        "element": "O",
                        "occu": 1
                    }
                ],
                "abc": [
                    0.41086828,
                    0.36535676,
                    0.11246995
                ],
                "xyz": [
                    4.248839490568769,
                    -0.14931886111214543,
                    1.0228548820196863
                ],
                "label": "O",
                "properties": {}
            },
            {
                "species": [
                    {
                        "element": "O",
                        "occu": 1
                    }
                ],
                "abc": [
                    0.36772709,
                    0.99071853,
                    0.86456136
                ],
                "xyz": [
                    7.272122987421845,
                    2.0439741916643435,
                    7.859127815386824
                ],
                "label": "O",
                "properties": {}
            },
            {
                "species": [
                    {
                        "element": "O",
                        "occu": 1
                    }
                ],
                "abc": [
                    0.71991441,
                    0.42676888,
                    0.22326452
                ],
                "xyz": [
                    6.2626278421847825,
                    -0.9617819110351906,
                    2.0301649685017207
                ],
                "label": "O",
                "properties": {}
            }
        ]
    },
    "spacegroup": {
        "source": "spglib",
        "symbol": "C2",
        "number": 5,
        "point_group": "2",
        "crystal_system": "monoclinic",
        "hall": "C 2y"
    },
    "dielectric": {
        "epsilon_ionic": [
            [
                5.51462215,
                4.441e-05,
                -0.40020388
            ],
            [
                4.441e-05,
                5.52505923,
                3.667e-05
            ],
            [
                -0.40020388,
                3.667e-05,
                5.69237797
            ]
        ],
        "epsilon_ionic_avg": 5.577353116666669,
        "epsilon_ionic_eig": [
            6.013454238481121,
            5.193545871516782,
            5.525059240002106
        ],
        "epsilon_electronic": [
            [
                3.1597716,
                0.0,
                0.11727203
            ],
            [
                0.0,
                3.06333984,
                0.0
            ],
            [
                0.11720088,
                0.0,
                3.20548105
            ]
        ],
        "epsilon_electronic_avg": 3.1428641633333334,
        "epsilon_electronic_eig": [
            3.0631829343489807,
            3.3020697156510193,
            3.06333984
        ]
    },
    "phonon": {
        "lowest_freq": -0.12803515207557983,
        "frequency": [
            -0.12803515207557983,
            -0.11436895892151146,
            -0.09338855476084262,
            2.453497573080907,
            2.792606002054076,
            3.6120527007707675,
            3.677757720458151,
            3.796654041345676,
            4.075749016850301,
            4.197081622484623,
            4.2811369628512725,
            4.907329913945296,
            4.979030079093698,
            4.9943074986681815,
            5.1079491723975075,
            5.468085117144555,
            5.746110863368006,
            5.976814629051185,
            6.425263824153686,
            6.4919267276381625,
            6.532158827094609,
            7.0378128925819,
            7.469433201421863,
            7.588646919537927,
            8.008738261027544,
            8.781223451165834,
            8.874666332931849,
            9.347007103105108,
            10.687697142196392,
            10.883242280678164,
            10.939285955363,
            11.09516823152375,
            11.506406865476912,
            11.533169193515691,
            11.871924587772986,
            12.497713869488699,
            12.680493088673972,
            13.107856092493156,
            13.941361379362062,
            14.02692279563761,
            14.598910349827262,
            15.280088278227526,
            15.347426385223555,
            16.129179138590107,
            16.279896049279994,
            16.698356296719506,
            17.121181528787993,
            17.424612966445768,
            17.46115798267665,
            17.858404182478253,
            18.07584797143604,
            18.61850876354552,
            18.91624373959221,
            19.194924837333993,
            19.39455518854288,
            20.322907716485908,
            20.552439434625768,
            20.96711345903952,
            21.287464643193644,
            21.723338203239788,
            21.919258055742638,
            21.92474786034424,
            22.722936804013443,
            23.89487758498863,
            24.090248656641837,
            24.224296876844157,
            25.04552867158932,
            25.340335319072,
            26.711537868556498,
            27.0281469524763,
            27.156869937960426,
            27.294393909117492,
            27.89859628143341,
            27.90562689583205,
            28.582763481826763,
            28.682195291781746,
            29.01171979533688,
            29.064175608355317,
            29.871311863675345,
            30.207215857884577,
            31.3554200087262,
            31.757760998005118,
            32.47915637508621,
            32.494134481789445,
            32.98692436782429,
            33.00004320976057,
            33.276482545338176,
            33.74547289614893,
            37.01568583262297,
            37.41392001068876,
            39.8344807394151,
            40.138661227051266,
            40.742049810667844,
            41.492280631781746,
            42.00993310923405,
            42.67833539398436
        ]
    },
    "born_effective_charge": {
        "avg_abs_trace": 2.140918125,
        "tensors": [
            [
                [
                    2.59832,
                    -4e-05,
                    -0.13482
                ],
                [
                    0.0,
                    2.00892,
                    0.0
                ],
                [
                    -0.1555,
                    5e-05,
                    2.65538
                ]
            ],
            [
                [
                    4.06253,
                    -0.09442,
                    0.31068
                ],
                [
                    -0.10911,
                    4.04754,
                    -0.07551
                ],
                [
                    0.29862,
                    -0.05376,
                    4.55561
                ]
            ],
            [
                [
                    4.06254,
                    0.09456,
                    0.31064
                ],
                [
                    0.10911,
                    4.04754,
                    0.07551
                ],
                [
                    0.29869,
                    0.05381,
                    4.55569
                ]
            ],
            [
                [
                    2.42857,
                    -0.3218,
                    0.33411
                ],
                [
                    -0.14386,
                    2.39412,
                    -0.04622
                ],
                [
                    0.26978,
                    -0.15478,
                    2.36308
                ]
            ],
            [
                [
                    2.32715,
                    0.03337,
                    0.78196
                ],
                [
                    0.04629,
                    2.89839,
                    0.02856
                ],
                [
                    0.64189,
                    -0.01208,
                    1.03373
                ]
            ],
            [
                [
                    2.51155,
                    -0.10778,
                    -0.33695
                ],
                [
                    -0.1206,
                    2.50664,
                    0.04115
                ],
                [
                    -0.13088,
                    0.16824,
                    2.62319
                ]
            ],
            [
                [
                    2.4941,
                    -0.00775,
                    0.12981
                ],
                [
                    -0.06531,
                    2.4621,
                    0.20385
                ],
                [
                    -0.05649,
                    0.29598,
                    2.25638
                ]
            ],
            [
                [
                    2.46271,
                    0.38685,
                    0.30501
                ],
                [
                    0.50237,
                    0.84595,
                    0.25709
                ],
                [
                    0.44002,
                    0.20108,
                    3.47742
                ]
            ],
            [
                [
                    2.49412,
                    0.00777,
                    0.12986
                ],
                [
                    0.06531,
                    2.4621,
                    -0.20385
                ],
                [
                    -0.0565,
                    -0.29597,
                    2.25633
                ]
            ],
            [
                [
                    2.32711,
                    -0.03339,
                    0.78197
                ],
                [
                    -0.04629,
                    2.89839,
                    -0.02856
                ],
                [
                    0.6419,
                    0.01213,
                    1.03372
                ]
            ],
            [
                [
                    2.46269,
                    -0.38686,
                    0.305
                ],
                [
                    -0.50237,
                    0.84595,
                    -0.25709
                ],
                [
                    0.44002,
                    -0.20109,
                    3.47743
                ]
            ],
            [
                [
                    2.42856,
                    0.3218,
                    0.33413
                ],
                [
                    0.14386,
                    2.39412,
                    0.04622
                ],
                [
                    0.26978,
                    0.15476,
                    2.36308
                ]
            ],
            [
                [
                    2.51152,
                    0.10779,
                    -0.33694
                ],
                [
                    0.1206,
                    2.50664,
                    -0.04115
                ],
                [
                    -0.13093,
                    -0.16826,
                    2.62317
                ]
            ],
            [
                [
                    -1.99227,
                    -0.22686,
                    -0.19359
                ],
                [
                    -0.23039,
                    -2.35529,
                    -0.16976
                ],
                [
                    -0.12495,
                    -0.18111,
                    -0.8537
                ]
            ],
            [
                [
                    -2.0239,
                    -0.33682,
                    -0.54999
                ],
                [
                    -0.41241,
                    -0.97189,
                    -0.06604
                ],
                [
                    -0.67779,
                    -0.0852,
                    -2.04392
                ]
            ],
            [
                [
                    -1.92315,
                    -0.14994,
                    -0.46599
                ],
                [
                    -0.19743,
                    -1.63135,
                    -0.08121
                ],
                [
                    -0.43193,
                    -0.03833,
                    -1.84301
                ]
            ],
            [
                [
                    -1.5622,
                    -0.29113,
                    0.2379
                ],
                [
                    -0.29084,
                    -0.88269,
                    -0.16656
                ],
                [
                    0.28628,
                    -0.10183,
                    -2.71747
                ]
            ],
            [
                [
                    -2.02394,
                    0.33683,
                    -0.55004
                ],
                [
                    0.41241,
                    -0.97189,
                    0.06604
                ],
                [
                    -0.67777,
                    0.08528,
                    -2.04384
                ]
            ],
            [
                [
                    -1.97338,
                    -0.56434,
                    0.0728
                ],
                [
                    -0.55453,
                    -2.30927,
                    -0.13958
                ],
                [
                    0.09996,
                    -0.04894,
                    -1.30844
                ]
            ],
            [
                [
                    -1.90161,
                    -4e-05,
                    0.26757
                ],
                [
                    -0.0,
                    -1.52618,
                    0.0
                ],
                [
                    0.35672,
                    3e-05,
                    -2.38415
                ]
            ],
            [
                [
                    -2.24966,
                    0.35299,
                    0.21881
                ],
                [
                    0.35326,
                    -1.8168,
                    0.26979
                ],
                [
                    0.17879,
                    0.16432,
                    -1.3653
                ]
            ],
            [
                [
                    -1.56229,
                    0.29112,
                    0.23793
                ],
                [
                    0.29084,
                    -0.88269,
                    0.16656
                ],
                [
                    0.28636,
                    0.10185,
                    -2.71748
                ]
            ],
            [
                [
                    -1.97331,
                    0.56437,
                    0.07277
                ],
                [
                    0.55453,
                    -2.30927,
                    0.13958
                ],
                [
                    0.09995,
                    0.04877,
                    -1.30843
                ]
            ],
            [
                [
                    -1.92311,
                    0.15002,
                    -0.46587
                ],
                [
                    0.19743,
                    -1.63135,
                    0.08121
                ],
                [
                    -0.43187,
                    0.03827,
                    -1.84318
                ]
            ],
            [
                [
                    -1.26205,
                    -0.16176,
                    -0.5031
                ],
                [
                    -0.22508,
                    -0.98832,
                    -0.18064
                ],
                [
                    -0.51133,
                    -0.09422,
                    -3.81685
                ]
            ],
            [
                [
                    -2.24963,
                    -0.353,
                    0.21885
                ],
                [
                    -0.35326,
                    -1.8168,
                    -0.26979
                ],
                [
                    0.17874,
                    -0.16425,
                    -1.3653
                ]
            ],
            [
                [
                    -1.26209,
                    0.16172,
                    -0.5031
                ],
                [
                    0.22508,
                    -0.98832,
                    0.18064
                ],
                [
                    -0.51136,
                    0.0942,
                    -3.81682
                ]
            ],
            [
                [
                    -1.88573,
                    0.34536,
                    -0.5318
                ],
                [
                    0.2467,
                    -2.14746,
                    0.42581
                ],
                [
                    -0.49916,
                    0.40882,
                    -0.99511
                ]
            ],
            [
                [
                    -1.76255,
                    0.22955,
                    0.12387
                ],
                [
                    0.16748,
                    -2.29304,
                    -0.20402
                ],
                [
                    0.11645,
                    -0.24452,
                    -1.50121
                ]
            ],
            [
                [
                    -1.99232,
                    0.22672,
                    -0.1936
                ],
                [
                    0.23039,
                    -2.35529,
                    0.16976
                ],
                [
                    -0.12483,
                    0.18109,
                    -0.85372
                ]
            ],
            [
                [
                    -1.76259,
                    -0.22952,
                    0.12386
                ],
                [
                    -0.16748,
                    -2.29304,
                    0.20402
                ],
                [
                    0.11643,
                    0.24449,
                    -1.50126
                ]
            ],
            [
                [
                    -1.88568,
                    -0.34537,
                    -0.53176
                ],
                [
                    -0.2467,
                    -2.14746,
                    -0.42581
                ],
                [
                    -0.49909,
                    -0.40885,
                    -0.99501
                ]
            ]
        ]
    },
    "band_gap": 5.0139000000000005,
    "is_direct": true,
    "formula": "CaLa2B10O19"
}