{
    "mp_id": "mp-560104",
    "nelements": 4,
    "nsites": 32,
    "elements": [
        "Ge",
        "Li",
        "O",
        "Ta"
    ],
    "structure": {
        "@module": "pymatgen.core.structure",
        "@class": "Structure",
        "charge": null,
        "lattice": {
            "matrix": [
                [
                    7.64572648,
                    0.0,
                    0.00074263
                ],
                [
                    0.0,
                    8.15707878,
                    0.0
                ],
                [
                    -3.74022608,
                    0.0,
                    6.54913182
                ]
            ],
            "a": 7.645726516065855,
            "b": 8.15707878,
            "c": 7.541910813928304,
            "alpha": 90.0,
            "beta": 119.72523389381173,
            "gamma": 90.0,
            "volume": 408.4710071742516
        },
        "sites": [
            {
                "species": [
                    {
                        "element": "Li",
                        "occu": 1
                    }
                ],
                "abc": [
                    0.74864317,
                    0.44255927,
                    0.28237558
                ],
                "xyz": [
                    4.6677724002690155,
                    3.609990830209291,
                    1.8498708610462928
                ],
                "label": "Li",
                "properties": {}
            },
            {
                "species": [
                    {
                        "element": "Li",
                        "occu": 1
                    }
                ],
                "abc": [
                    0.25135683,
                    0.55744073,
                    0.71762442
                ],
                "xyz": [
                    -0.7622720002690155,
                    4.54708794979071,
                    4.700003588953708
                ],
                "label": "Li",
                "properties": {}
            },
            {
                "species": [
                    {
                        "element": "Li",
                        "occu": 1
                    }
                ],
                "abc": [
                    0.25135683,
                    0.94255927,
                    0.21762442
                ],
                "xyz": [
                    1.1078410397309848,
                    7.688530220209291,
                    1.4254376789537075
                ],
                "label": "Li",
                "properties": {}
            },
            {
                "species": [
                    {
                        "element": "Li",
                        "occu": 1
                    }
                ],
                "abc": [
                    0.74864317,
                    0.05744073,
                    0.78237558
                ],
                "xyz": [
                    2.7976593602690163,
                    0.4685485597907095,
                    5.124436771046293
                ],
                "label": "Li",
                "properties": {}
            },
            {
                "species": [
                    {
                        "element": "Ta",
                        "occu": 1
                    }
                ],
                "abc": [
                    0.25001125,
                    0.2543462,
                    0.99974866
                ],
                "xyz": [
                    -1.8277683771541522,
                    2.0747219907936363,
                    6.547671427062949
                ],
                "label": "Ta",
                "properties": {}
            },
            {
                "species": [
                    {
                        "element": "Ta",
                        "occu": 1
                    }
                ],
                "abc": [
                    0.74998875,
                    0.7543462,
                    0.50025134
                ],
                "xyz": [
                    3.863155737154153,
                    6.153261380793636,
                    3.2767689329370517
                ],
                "label": "Ta",
                "properties": {}
            },
            {
                "species": [
                    {
                        "element": "Ta",
                        "occu": 1
                    }
                ],
                "abc": [
                    0.25001125,
                    0.2456538,
                    0.49974866
                ],
                "xyz": [
                    0.0423446628458477,
                    2.003817399206364,
                    3.273105517062949
                ],
                "label": "Ta",
                "properties": {}
            },
            {
                "species": [
                    {
                        "element": "Ta",
                        "occu": 1
                    }
                ],
                "abc": [
                    0.74998875,
                    0.7456538,
                    0.00025134
                ],
                "xyz": [
                    5.733268777154153,
                    6.082356789206365,
                    0.0022030229370513
                ],
                "label": "Ta",
                "properties": {}
            },
            {
                "species": [
                    {
                        "element": "Ge",
                        "occu": 1
                    }
                ],
                "abc": [
                    0.7498707,
                    0.1117455,
                    0.24324959
                ],
                "xyz": [
                    4.823497807098829,
                    0.9115168468104901,
                    1.5936305065488947
                ],
                "label": "Ge",
                "properties": {}
            },
            {
                "species": [
                    {
                        "element": "Ge",
                        "occu": 1
                    }
                ],
                "abc": [
                    0.7498707,
                    0.3882545,
                    0.74324959
                ],
                "xyz": [
                    2.953384767098829,
                    3.1670225431895105,
                    4.868196416548895
                ],
                "label": "Ge",
                "properties": {}
            },
            {
                "species": [
                    {
                        "element": "Ge",
                        "occu": 1
                    }
                ],
                "abc": [
                    0.2501293,
                    0.8882545,
                    0.75675041
                ],
                "xyz": [
                    -0.9179974070988284,
                    7.24556193318951,
                    4.956243943451105
                ],
                "label": "Ge",
                "properties": {}
            },
            {
                "species": [
                    {
                        "element": "Ge",
                        "occu": 1
                    }
                ],
                "abc": [
                    0.2501293,
                    0.6117455,
                    0.25675041
                ],
                "xyz": [
                    0.9521156329011714,
                    4.990056236810491,
                    1.6816780334511052
                ],
                "label": "Ge",
                "properties": {}
            },
            {
                "species": [
                    {
                        "element": "O",
                        "occu": 1
                    }
                ],
                "abc": [
                    0.74461864,
                    0.51092409,
                    0.54600328
                ],
                "xyz": [
                    3.6509747457280453,
                    4.167648052729811,
                    3.576400431012993
                ],
                "label": "O",
                "properties": {}
            },
            {
                "species": [
                    {
                        "element": "O",
                        "occu": 1
                    }
                ],
                "abc": [
                    0.25538136,
                    0.01092409,
                    0.95399672
                ],
                "xyz": [
                    -1.6155873857280445,
                    0.0891086627298102,
                    6.248039928987008
                ],
                "label": "O",
                "properties": {}
            },
            {
                "species": [
                    {
                        "element": "O",
                        "occu": 1
                    }
                ],
                "abc": [
                    0.24648111,
                    0.01289833,
                    0.56226697
                ],
                "xyz": [
                    -0.2184784355697844,
                    0.1052126939404374,
                    3.6825435488287055
                ],
                "label": "O",
                "properties": {}
            },
            {
                "species": [
                    {
                        "element": "O",
                        "occu": 1
                    }
                ],
                "abc": [
                    0.05136088,
                    0.74224935,
                    0.65265191
                ],
                "xyz": [
                    -2.0483744546917104,
                    6.054586422353794,
                    4.274341533295091
                ],
                "label": "O",
                "properties": {}
            },
            {
                "species": [
                    {
                        "element": "O",
                        "occu": 1
                    }
                ],
                "abc": [
                    0.24904665,
                    0.31736214,
                    0.74977179
                ],
                "xyz": [
                    -0.900173436345991,
                    2.5887479777693896,
                    4.910539237141048
                ],
                "label": "O",
                "properties": {}
            },
            {
                "species": [
                    {
                        "element": "O",
                        "occu": 1
                    }
                ],
                "abc": [
                    0.75351889,
                    0.98710167,
                    0.43773303
                ],
                "xyz": [
                    4.123978835569786,
                    8.051866086059563,
                    2.8673309011712953
                ],
                "label": "O",
                "properties": {}
            },
            {
                "species": [
                    {
                        "element": "O",
                        "occu": 1
                    }
                ],
                "abc": [
                    0.24904665,
                    0.18263786,
                    0.24977179
                ],
                "xyz": [
                    0.9699396036540091,
                    1.489791412230611,
                    1.6359733271410473
                ],
                "label": "O",
                "properties": {}
            },
            {
                "species": [
                    {
                        "element": "O",
                        "occu": 1
                    }
                ],
                "abc": [
                    0.75095335,
                    0.68263786,
                    0.25022821
                ],
                "xyz": [
                    4.805673836345991,
                    5.568330802230612,
                    1.639335212858953
                ],
                "label": "O",
                "properties": {}
            },
            {
                "species": [
                    {
                        "element": "O",
                        "occu": 1
                    }
                ],
                "abc": [
                    0.55135072,
                    0.24219703,
                    0.65231798
                ],
                "xyz": [
                    1.7756600784221472,
                    1.9756202539920236,
                    4.272525889161317
                ],
                "label": "O",
                "properties": {}
            },
            {
                "species": [
                    {
                        "element": "O",
                        "occu": 1
                    }
                ],
                "abc": [
                    0.24648111,
                    0.48710167,
                    0.06226697
                ],
                "xyz": [
                    1.6516346044302155,
                    3.973326696059563,
                    0.4079776388287047
                ],
                "label": "O",
                "properties": {}
            },
            {
                "species": [
                    {
                        "element": "O",
                        "occu": 1
                    }
                ],
                "abc": [
                    0.75351889,
                    0.51289833,
                    0.93773303
                ],
                "xyz": [
                    2.2538657955697863,
                    4.183752083940438,
                    6.1418968111712955
                ],
                "label": "O",
                "properties": {}
            },
            {
                "species": [
                    {
                        "element": "O",
                        "occu": 1
                    }
                ],
                "abc": [
                    0.05136088,
                    0.75775065,
                    0.15265191
                ],
                "xyz": [
                    -0.17826141469171036,
                    6.181031747646207,
                    0.9997756232950906
                ],
                "label": "O",
                "properties": {}
            },
            {
                "species": [
                    {
                        "element": "O",
                        "occu": 1
                    }
                ],
                "abc": [
                    0.74461864,
                    0.98907591,
                    0.04600328
                ],
                "xyz": [
                    5.521087785728045,
                    8.06797011727019,
                    0.30183452101299285
                ],
                "label": "O",
                "properties": {}
            },
            {
                "species": [
                    {
                        "element": "O",
                        "occu": 1
                    }
                ],
                "abc": [
                    0.75095335,
                    0.81736214,
                    0.75022821
                ],
                "xyz": [
                    2.9355607963459915,
                    6.667287367769389,
                    4.913901122858952
                ],
                "label": "O",
                "properties": {}
            },
            {
                "species": [
                    {
                        "element": "O",
                        "occu": 1
                    }
                ],
                "abc": [
                    0.44864928,
                    0.74219703,
                    0.84768202
                ],
                "xyz": [
                    0.25972728157785285,
                    6.054159643992024,
                    5.551914470838683
                ],
                "label": "O",
                "properties": {}
            },
            {
                "species": [
                    {
                        "element": "O",
                        "occu": 1
                    }
                ],
                "abc": [
                    0.94863912,
                    0.24224935,
                    0.84734809
                ],
                "xyz": [
                    4.0837618146917105,
                    1.9760470323537933,
                    5.55009882670491
                ],
                "label": "O",
                "properties": {}
            },
            {
                "species": [
                    {
                        "element": "O",
                        "occu": 1
                    }
                ],
                "abc": [
                    0.25538136,
                    0.48907591,
                    0.45399672
                ],
                "xyz": [
                    0.25452565427195517,
                    3.9894307272701903,
                    2.9734740189870075
                ],
                "label": "O",
                "properties": {}
            },
            {
                "species": [
                    {
                        "element": "O",
                        "occu": 1
                    }
                ],
                "abc": [
                    0.94863912,
                    0.25775065,
                    0.34734809
                ],
                "xyz": [
                    5.95387485469171,
                    2.1024923576462076,
                    2.27553291670491
                ],
                "label": "O",
                "properties": {}
            },
            {
                "species": [
                    {
                        "element": "O",
                        "occu": 1
                    }
                ],
                "abc": [
                    0.44864928,
                    0.75780297,
                    0.34768202
                ],
                "xyz": [
                    2.129840321577853,
                    6.181458526007977,
                    2.277348560838683
                ],
                "label": "O",
                "properties": {}
            },
            {
                "species": [
                    {
                        "element": "O",
                        "occu": 1
                    }
                ],
                "abc": [
                    0.55135072,
                    0.25780297,
                    0.15231798
                ],
                "xyz": [
                    3.645773118422147,
                    2.102919136007977,
                    0.9979599791613172
                ],
                "label": "O",
                "properties": {}
            }
        ]
    },
    "spacegroup": {
        "source": "spglib",
        "symbol": "P2_1/c",
        "number": 14,
        "point_group": "2/m",
        "crystal_system": "monoclinic",
        "hall": "-P 2ybc"
    },
    "dielectric": {
        "epsilon_ionic": [
            [
                11.86593432,
                -0.0,
                -2.77373473
            ],
            [
                -0.0,
                6.0556352,
                1e-08
            ],
            [
                -2.77373473,
                1e-08,
                15.6802755
            ]
        ],
        "epsilon_ionic_avg": 11.200615006666665,
        "epsilon_ionic_eig": [
            17.13924572876696,
            10.406964091233036,
            6.0556352
        ],
        "epsilon_electronic": [
            [
                3.83395118,
                0.0,
                -0.17845585
            ],
            [
                0.0,
                3.71229,
                0.0
            ],
            [
                -0.17845671,
                0.0,
                4.04955784
            ]
        ],
        "epsilon_electronic_avg": 3.8652663400000002,
        "epsilon_electronic_eig": [
            3.7332642180669167,
            4.150244801933084,
            3.71229
        ]
    },
    "phonon": {
        "lowest_freq": -0.06499675400968541,
        "frequency": [
            -0.06499675400968541,
            -0.037311490409501484,
            -0.0313552093613888,
            1.997029560003286,
            2.003710504573943,
            2.132420908369589,
            2.832470316118191,
            2.858039854112175,
            2.8814375191606283,
            3.6992029573706855,
            3.733524841701172,
            3.8772437648442484,
            3.923571808865004,
            4.203043570091638,
            4.49637708947828,
            4.585644568195941,
            4.815865004656518,
            4.84310632798895,
            5.144327431759285,
            5.299746953432229,
            5.665852748174829,
            5.672496894323523,
            5.91223682478822,
            5.959744439795314,
            5.983754955734569,
            6.012254380722717,
            6.129555020455266,
            6.341273007888628,
            6.690907970640661,
            6.788416903104947,
            6.8282886216320975,
            6.912156470247876,
            7.070021165437496,
            7.293445248756761,
            7.313002967388123,
            7.5145424535875,
            7.606853542601064,
            7.75944135748324,
            7.790308568877319,
            7.868666786167323,
            7.929378016911998,
            8.333302603639906,
            8.410388417254607,
            8.487858179908805,
            8.671785672202441,
            9.166139953902354,
            9.27631479631603,
            9.39479786709332,
            9.504604962117172,
            10.027988422471182,
            10.19240387385379,
            10.631233845571165,
            10.760007270038582,
            11.477109921570417,
            11.734821451293945,
            11.815202186914501,
            11.830717761528861,
            12.003203157474116,
            12.132523459478874,
            12.25910606363698,
            12.266039402616418,
            12.343291409378734,
            13.064260643096457,
            13.15687614944546,
            13.394432013713189,
            13.504253174703386,
            13.885469090499663,
            13.95556786404204,
            14.44856453098033,
            14.564996152901411,
            14.584796954884544,
            15.03786966114245,
            15.278517583843525,
            15.357747924037513,
            15.980283764746865,
            15.997762728031603,
            16.882257556292682,
            17.003185103870422,
            20.91701158167217,
            20.926232006724806,
            21.187979091902662,
            21.235858461554407,
            22.335719897711414,
            22.48895408787538,
            22.495313593110936,
            22.523909336362166,
            22.674975271438402,
            22.9997629423754,
            23.382288977219364,
            25.97788897983785,
            26.03229401513382,
            26.33457252887217,
            27.055625363014723,
            27.42361940868481,
            27.76736227851129,
            27.769906690842145
        ]
    },
    "born_effective_charge": {
        "avg_abs_trace": 2.9585422916666664,
        "tensors": [
            [
                [
                    1.01849,
                    0.0156,
                    -0.02096
                ],
                [
                    0.04236,
                    1.29687,
                    -0.06476
                ],
                [
                    -0.0047,
                    -0.02257,
                    1.07142
                ]
            ],
            [
                [
                    1.01848,
                    0.01566,
                    -0.02093
                ],
                [
                    0.04236,
                    1.29685,
                    -0.06475
                ],
                [
                    -0.00468,
                    -0.02268,
                    1.07137
                ]
            ],
            [
                [
                    1.01848,
                    -0.01566,
                    -0.02093
                ],
                [
                    -0.04236,
                    1.29687,
                    0.06476
                ],
                [
                    -0.00468,
                    0.02268,
                    1.07137
                ]
            ],
            [
                [
                    1.01849,
                    -0.0156,
                    -0.02096
                ],
                [
                    -0.04236,
                    1.29685,
                    0.06475
                ],
                [
                    -0.0047,
                    0.02257,
                    1.07142
                ]
            ],
            [
                [
                    6.88338,
                    0.29919,
                    -0.78938
                ],
                [
                    -1.11155,
                    5.74363,
                    -0.95215
                ],
                [
                    -0.73677,
                    -0.30955,
                    7.82682
                ]
            ],
            [
                [
                    6.88342,
                    -0.29921,
                    -0.78937
                ],
                [
                    1.11155,
                    5.74363,
                    0.95215
                ],
                [
                    -0.73686,
                    0.3096,
                    7.82685
                ]
            ],
            [
                [
                    6.88338,
                    -0.29919,
                    -0.78938
                ],
                [
                    1.11153,
                    5.74356,
                    0.95215
                ],
                [
                    -0.73677,
                    0.30955,
                    7.82682
                ]
            ],
            [
                [
                    6.88342,
                    0.29921,
                    -0.78937
                ],
                [
                    -1.11153,
                    5.74356,
                    -0.95215
                ],
                [
                    -0.73686,
                    -0.3096,
                    7.82685
                ]
            ],
            [
                [
                    3.99498,
                    -0.00219,
                    0.3903
                ],
                [
                    -0.03256,
                    4.13655,
                    0.04039
                ],
                [
                    0.30753,
                    0.02448,
                    3.53032
                ]
            ],
            [
                [
                    3.99498,
                    0.00219,
                    0.3903
                ],
                [
                    0.03256,
                    4.13668,
                    -0.04039
                ],
                [
                    0.30753,
                    -0.02448,
                    3.53032
                ]
            ],
            [
                [
                    3.99502,
                    -0.00215,
                    0.3903
                ],
                [
                    -0.03256,
                    4.13668,
                    0.04039
                ],
                [
                    0.3075,
                    0.0244,
                    3.53032
                ]
            ],
            [
                [
                    3.99502,
                    0.00215,
                    0.3903
                ],
                [
                    0.03256,
                    4.13655,
                    -0.04039
                ],
                [
                    0.3075,
                    -0.0244,
                    3.53032
                ]
            ],
            [
                [
                    -1.46238,
                    0.54855,
                    0.36447
                ],
                [
                    0.232,
                    -3.19849,
                    -0.6779
                ],
                [
                    0.38001,
                    -1.09269,
                    -1.92415
                ]
            ],
            [
                [
                    -1.46237,
                    -0.54878,
                    0.36443
                ],
                [
                    -0.232,
                    -3.19849,
                    0.6779
                ],
                [
                    0.37995,
                    1.09313,
                    -1.92411
                ]
            ],
            [
                [
                    -1.43982,
                    0.6418,
                    0.36198
                ],
                [
                    0.39639,
                    -3.33722,
                    -0.94925
                ],
                [
                    0.38223,
                    -1.24315,
                    -1.89663
                ]
            ],
            [
                [
                    -3.35595,
                    -0.39076,
                    -1.2083
                ],
                [
                    -0.70844,
                    -1.6487,
                    -0.39446
                ],
                [
                    -1.22296,
                    -0.21275,
                    -1.87438
                ]
            ],
            [
                [
                    -2.29841,
                    0.00344,
                    2.13834
                ],
                [
                    -0.01242,
                    -1.31237,
                    0.03346
                ],
                [
                    2.11089,
                    -0.00253,
                    -4.84208
                ]
            ],
            [
                [
                    -1.4398,
                    0.64199,
                    0.36197
                ],
                [
                    0.39636,
                    -3.33728,
                    -0.9494
                ],
                [
                    0.38218,
                    -1.24352,
                    -1.89666
                ]
            ],
            [
                [
                    -2.29841,
                    -0.00344,
                    2.13834
                ],
                [
                    0.01237,
                    -1.31267,
                    -0.03345
                ],
                [
                    2.11089,
                    0.00253,
                    -4.84208
                ]
            ],
            [
                [
                    -2.29844,
                    0.00337,
                    2.13836
                ],
                [
                    -0.01237,
                    -1.31267,
                    0.03345
                ],
                [
                    2.11101,
                    -0.00243,
                    -4.84224
                ]
            ],
            [
                [
                    -3.34016,
                    -0.42331,
                    -1.23634
                ],
                [
                    -0.72064,
                    -1.67983,
                    -0.49161
                ],
                [
                    -1.21645,
                    -0.28591,
                    -1.89143
                ]
            ],
            [
                [
                    -1.43982,
                    -0.6418,
                    0.36198
                ],
                [
                    -0.39636,
                    -3.33728,
                    0.9494
                ],
                [
                    0.38223,
                    1.24315,
                    -1.89663
                ]
            ],
            [
                [
                    -1.4398,
                    -0.64199,
                    0.36197
                ],
                [
                    -0.39639,
                    -3.33722,
                    0.94925
                ],
                [
                    0.38218,
                    1.24352,
                    -1.89666
                ]
            ],
            [
                [
                    -3.35595,
                    0.39076,
                    -1.2083
                ],
                [
                    0.70858,
                    -1.64889,
                    0.39463
                ],
                [
                    -1.22296,
                    0.21275,
                    -1.87438
                ]
            ],
            [
                [
                    -1.46238,
                    -0.54855,
                    0.36447
                ],
                [
                    -0.23192,
                    -3.19876,
                    0.67783
                ],
                [
                    0.38001,
                    1.09269,
                    -1.92415
                ]
            ],
            [
                [
                    -2.29844,
                    -0.00337,
                    2.13836
                ],
                [
                    0.01242,
                    -1.31237,
                    -0.03346
                ],
                [
                    2.11101,
                    0.00243,
                    -4.84224
                ]
            ],
            [
                [
                    -3.34039,
                    0.42329,
                    -1.23649
                ],
                [
                    0.72064,
                    -1.67983,
                    0.49161
                ],
                [
                    -1.21621,
                    0.28586,
                    -1.89125
                ]
            ],
            [
                [
                    -3.35606,
                    0.39076,
                    -1.20839
                ],
                [
                    0.70844,
                    -1.6487,
                    0.39446
                ],
                [
                    -1.22268,
                    0.21271,
                    -1.87416
                ]
            ],
            [
                [
                    -1.46237,
                    0.54878,
                    0.36443
                ],
                [
                    0.23192,
                    -3.19876,
                    -0.67783
                ],
                [
                    0.37995,
                    -1.09313,
                    -1.92411
                ]
            ],
            [
                [
                    -3.35606,
                    -0.39076,
                    -1.20839
                ],
                [
                    -0.70858,
                    -1.64889,
                    -0.39463
                ],
                [
                    -1.22268,
                    -0.21271,
                    -1.87416
                ]
            ],
            [
                [
                    -3.34039,
                    -0.42329,
                    -1.23649
                ],
                [
                    -0.72083,
                    -1.67994,
                    -0.49168
                ],
                [
                    -1.21621,
                    -0.28586,
                    -1.89125
                ]
            ],
            [
                [
                    -3.34016,
                    0.42331,
                    -1.23634
                ],
                [
                    0.72083,
                    -1.67994,
                    0.49168
                ],
                [
                    -1.21645,
                    0.28591,
                    -1.89143
                ]
            ]
        ]
    },
    "band_gap": 3.8528,
    "is_direct": false,
    "formula": "LiTaGeO5"
}