{
    "mp_id": "mp-556275",
    "nelements": 4,
    "nsites": 13,
    "elements": [
        "Al",
        "O",
        "Rb",
        "Sb"
    ],
    "structure": {
        "@module": "pymatgen.core.structure",
        "@class": "Structure",
        "charge": null,
        "lattice": {
            "matrix": [
                [
                    5.68689418,
                    0.0,
                    0.0
                ],
                [
                    -2.84344709,
                    4.92499468,
                    0.0
                ],
                [
                    0.0,
                    0.0,
                    8.38109584
                ]
            ],
            "a": 5.68689418,
            "b": 5.686894051383213,
            "c": 8.38109584,
            "alpha": 90.0,
            "beta": 90.0,
            "gamma": 120.00000074814284,
            "volume": 234.7370918220068
        },
        "sites": [
            {
                "species": [
                    {
                        "element": "Rb",
                        "occu": 1
                    }
                ],
                "abc": [
                    0.666667,
                    0.333333,
                    0.40720523
                ],
                "xyz": [
                    2.84344993344709,
                    1.64166325166844,
                    3.412826059179243
                ],
                "label": "Rb",
                "properties": {}
            },
            {
                "species": [
                    {
                        "element": "Rb",
                        "occu": 1
                    }
                ],
                "abc": [
                    0.333333,
                    0.666667,
                    0.59279477
                ],
                "xyz": [
                    -2.843447090006279e-06,
                    3.28333142833156,
                    4.968269780820758
                ],
                "label": "Rb",
                "properties": {}
            },
            {
                "species": [
                    {
                        "element": "Al",
                        "occu": 1
                    }
                ],
                "abc": [
                    0.0,
                    0.0,
                    0.79488553
                ],
                "xyz": [
                    0.0,
                    0.0,
                    6.662011808759195
                ],
                "label": "Al",
                "properties": {}
            },
            {
                "species": [
                    {
                        "element": "Al",
                        "occu": 1
                    }
                ],
                "abc": [
                    0.0,
                    0.0,
                    0.20511447
                ],
                "xyz": [
                    0.0,
                    0.0,
                    1.7190840312408049
                ],
                "label": "Al",
                "properties": {}
            },
            {
                "species": [
                    {
                        "element": "Sb",
                        "occu": 1
                    }
                ],
                "abc": [
                    0.333333,
                    0.666667,
                    0.15179558
                ],
                "xyz": [
                    -2.843447090006279e-06,
                    3.28333142833156,
                    1.2722133040683874
                ],
                "label": "Sb",
                "properties": {}
            },
            {
                "species": [
                    {
                        "element": "Sb",
                        "occu": 1
                    }
                ],
                "abc": [
                    0.666667,
                    0.333333,
                    0.84820442
                ],
                "xyz": [
                    2.84344993344709,
                    1.64166325166844,
                    7.108882535931613
                ],
                "label": "Sb",
                "properties": {}
            },
            {
                "species": [
                    {
                        "element": "O",
                        "occu": 1
                    }
                ],
                "abc": [
                    0.33609715,
                    0.16804857,
                    0.71739705
                ],
                "xyz": [
                    1.4335117089044256,
                    0.8276383132316076,
                    6.012573431383272
                ],
                "label": "O",
                "properties": {}
            },
            {
                "species": [
                    {
                        "element": "O",
                        "occu": 1
                    }
                ],
                "abc": [
                    0.16804857,
                    0.83195143,
                    0.28260295
                ],
                "xyz": [
                    -1.4099354379645164,
                    4.097356366768393,
                    2.3685224086167285
                ],
                "label": "O",
                "properties": {}
            },
            {
                "species": [
                    {
                        "element": "O",
                        "occu": 1
                    }
                ],
                "abc": [
                    0.83195143,
                    0.16804857,
                    0.71739705
                ],
                "xyz": [
                    4.253382527964517,
                    0.8276383132316076,
                    6.012573431383272
                ],
                "label": "O",
                "properties": {}
            },
            {
                "species": [
                    {
                        "element": "O",
                        "occu": 1
                    }
                ],
                "abc": [
                    0.83195143,
                    0.66390285,
                    0.71739705
                ],
                "xyz": [
                    2.8434471184344714,
                    3.269718004286838,
                    6.012573431383272
                ],
                "label": "O",
                "properties": {}
            },
            {
                "species": [
                    {
                        "element": "O",
                        "occu": 1
                    }
                ],
                "abc": [
                    0.66390285,
                    0.83195143,
                    0.28260295
                ],
                "xyz": [
                    1.4099353810955741,
                    4.097356366768393,
                    2.3685224086167285
                ],
                "label": "O",
                "properties": {}
            },
            {
                "species": [
                    {
                        "element": "O",
                        "occu": 1
                    }
                ],
                "abc": [
                    0.0,
                    0.0,
                    0.0
                ],
                "xyz": [
                    0.0,
                    0.0,
                    0.0
                ],
                "label": "O",
                "properties": {}
            },
            {
                "species": [
                    {
                        "element": "O",
                        "occu": 1
                    }
                ],
                "abc": [
                    0.16804857,
                    0.33609715,
                    0.28260295
                ],
                "xyz": [
                    -2.843447077793826e-08,
                    1.655276675713162,
                    2.3685224086167285
                ],
                "label": "O",
                "properties": {}
            }
        ]
    },
    "spacegroup": {
        "source": "spglib",
        "symbol": "P-3m1",
        "number": 164,
        "point_group": "-3m",
        "crystal_system": "trigonal",
        "hall": "-P 3 2\""
    },
    "dielectric": {
        "epsilon_ionic": [
            [
                5.48469596,
                -3.7e-07,
                0.0
            ],
            [
                -3.7e-07,
                5.48513012,
                -0.00019522
            ],
            [
                0.0,
                -0.00019522,
                2.27072146
            ]
        ],
        "epsilon_ionic_avg": 4.413515846666667,
        "epsilon_ionic_eig": [
            5.484695959684688,
            5.485130132171569,
            2.270721448143745
        ],
        "epsilon_electronic": [
            [
                3.32502899,
                0.0,
                0.0
            ],
            [
                0.0,
                3.32502943,
                0.0
            ],
            [
                -0.0,
                0.0,
                2.93757202
            ]
        ],
        "epsilon_electronic_avg": 3.1958768133333333,
        "epsilon_electronic_eig": [
            3.32502899,
            3.32502943,
            2.93757202
        ]
    },
    "phonon": {
        "lowest_freq": -0.039585700344418676,
        "frequency": [
            -0.039585700344418676,
            -0.03958569772048987,
            -0.03177037796176541,
            1.005516992516596,
            1.0055170581425714,
            1.7082019000733488,
            1.73217966060499,
            2.3617394180563775,
            2.361739568106877,
            2.530074556286661,
            2.658333418036911,
            2.6583335697335353,
            2.826839903142035,
            2.826840089024605,
            3.112233931594627,
            3.626234595089733,
            6.504349215735454,
            6.504349478759598,
            6.7194295136461255,
            7.369138433590798,
            7.3691387652443945,
            10.004112582574482,
            10.004112802444174,
            10.57553846009201,
            10.575538783631261,
            12.525268009347077,
            15.434470559156308,
            15.434471050031839,
            15.64468944897065,
            15.64468991762833,
            15.740049745032787,
            19.467254803815393,
            21.637410212240717,
            21.637411002908763,
            21.651637051917195,
            21.65163784206571,
            24.051526015460958,
            24.41755109908338,
            29.792843666951356
        ]
    },
    "born_effective_charge": {
        "avg_abs_trace": 1.9428497435897436,
        "tensors": [
            [
                [
                    1.1926,
                    -9e-05,
                    -0.0
                ],
                [
                    -0.0,
                    1.19254,
                    -0.0002
                ],
                [
                    0.0,
                    0.0,
                    1.39993
                ]
            ],
            [
                [
                    1.1926,
                    9e-05,
                    0.0
                ],
                [
                    -0.0,
                    1.19264,
                    -0.00017
                ],
                [
                    0.0,
                    0.0,
                    1.40009
                ]
            ],
            [
                [
                    3.06859,
                    -9e-05,
                    3e-05
                ],
                [
                    -0.0,
                    3.06846,
                    0.00015
                ],
                [
                    0.0,
                    0.0,
                    1.9018
                ]
            ],
            [
                [
                    3.06859,
                    9e-05,
                    -3e-05
                ],
                [
                    -0.0,
                    3.06841,
                    6e-05
                ],
                [
                    0.0,
                    0.0,
                    1.90186
                ]
            ],
            [
                [
                    2.59885,
                    -0.00058,
                    -4e-05
                ],
                [
                    -0.0,
                    2.59869,
                    -6e-05
                ],
                [
                    0.0,
                    0.0,
                    1.92122
                ]
            ],
            [
                [
                    2.59885,
                    0.00058,
                    4e-05
                ],
                [
                    -0.0,
                    2.5989,
                    3e-05
                ],
                [
                    0.0,
                    0.0,
                    1.92095
                ]
            ],
            [
                [
                    -2.40903,
                    -0.71644,
                    -0.38376
                ],
                [
                    -0.71636,
                    -1.58214,
                    -0.22155
                ],
                [
                    -0.13885,
                    -0.08017,
                    -1.40601
                ]
            ],
            [
                [
                    -2.40903,
                    0.71644,
                    0.38376
                ],
                [
                    0.71639,
                    -1.58184,
                    -0.22161
                ],
                [
                    0.13817,
                    -0.07978,
                    -1.40648
                ]
            ],
            [
                [
                    -2.4095,
                    0.71646,
                    0.38403
                ],
                [
                    0.71636,
                    -1.58214,
                    -0.22155
                ],
                [
                    0.13885,
                    -0.08017,
                    -1.40601
                ]
            ],
            [
                [
                    -1.16879,
                    0.0004,
                    -0.00027
                ],
                [
                    0.0,
                    -2.82315,
                    0.44328
                ],
                [
                    0.0,
                    0.16033,
                    -1.40601
                ]
            ],
            [
                [
                    -2.4095,
                    -0.71646,
                    -0.38403
                ],
                [
                    -0.71639,
                    -1.58184,
                    -0.22161
                ],
                [
                    -0.13817,
                    -0.07978,
                    -1.40648
                ]
            ],
            [
                [
                    -1.74545,
                    0.0,
                    -0.0
                ],
                [
                    -0.0,
                    -1.74564,
                    -0.00014
                ],
                [
                    0.0,
                    0.0,
                    -2.00838
                ]
            ],
            [
                [
                    -1.16879,
                    -0.0004,
                    0.00027
                ],
                [
                    -0.0,
                    -2.82288,
                    0.44334
                ],
                [
                    0.0,
                    0.15955,
                    -1.40648
                ]
            ]
        ]
    },
    "band_gap": 3.4934,
    "is_direct": false,
    "formula": "Rb2Al2Sb2O7"
}