{
    "mp_id": "mp-5377",
    "nelements": 3,
    "nsites": 12,
    "elements": [
        "O",
        "Ta",
        "Y"
    ],
    "structure": {
        "@module": "pymatgen.core.structure",
        "@class": "Structure",
        "charge": null,
        "lattice": {
            "matrix": [
                [
                    5.12262296,
                    0.0,
                    0.00083869
                ],
                [
                    0.0,
                    5.4520849,
                    0.0
                ],
                [
                    -0.66438866,
                    0.0,
                    5.26611035
                ]
            ],
            "a": 5.122623028656323,
            "b": 5.4520849,
            "c": 5.307855547197353,
            "alpha": 90.0,
            "beta": 97.18124021345712,
            "gamma": 90.0,
            "volume": 147.08010382186225
        },
        "sites": [
            {
                "species": [
                    {
                        "element": "Y",
                        "occu": 1
                    }
                ],
                "abc": [
                    0.0,
                    0.77114602,
                    0.75
                ],
                "xyz": [
                    -0.498291495,
                    4.204353571337098,
                    3.9495827625
                ],
                "label": "Y",
                "properties": {}
            },
            {
                "species": [
                    {
                        "element": "Y",
                        "occu": 1
                    }
                ],
                "abc": [
                    0.0,
                    0.22885398,
                    0.25
                ],
                "xyz": [
                    -0.166097165,
                    1.2477313286629022,
                    1.3165275875
                ],
                "label": "Y",
                "properties": {}
            },
            {
                "species": [
                    {
                        "element": "Ta",
                        "occu": 1
                    }
                ],
                "abc": [
                    0.5,
                    0.31086201,
                    0.75
                ],
                "xyz": [
                    2.063019985,
                    1.694846070704649,
                    3.9500021075
                ],
                "label": "Ta",
                "properties": {}
            },
            {
                "species": [
                    {
                        "element": "Ta",
                        "occu": 1
                    }
                ],
                "abc": [
                    0.5,
                    0.68913799,
                    0.25
                ],
                "xyz": [
                    2.395214315,
                    3.7572388292953507,
                    1.3169469325
                ],
                "label": "Ta",
                "properties": {}
            },
            {
                "species": [
                    {
                        "element": "O",
                        "occu": 1
                    }
                ],
                "abc": [
                    0.24825599,
                    0.08342329,
                    0.59964889
                ],
                "xyz": [
                    0.873321911833943,
                    0.454830859717321,
                    3.1580254358112643
                ],
                "label": "O",
                "properties": {}
            },
            {
                "species": [
                    {
                        "element": "O",
                        "occu": 1
                    }
                ],
                "abc": [
                    0.75174401,
                    0.08342329,
                    0.90035111
                ],
                "xyz": [
                    3.252718058166057,
                    0.454830859717321,
                    4.741978779188735
                ],
                "label": "O",
                "properties": {}
            },
            {
                "species": [
                    {
                        "element": "O",
                        "occu": 1
                    }
                ],
                "abc": [
                    0.75174401,
                    0.91657671,
                    0.40035111
                ],
                "xyz": [
                    3.584912388166057,
                    4.997254040282678,
                    2.108923604188736
                ],
                "label": "O",
                "properties": {}
            },
            {
                "species": [
                    {
                        "element": "O",
                        "occu": 1
                    }
                ],
                "abc": [
                    0.24825599,
                    0.91657671,
                    0.09964889
                ],
                "xyz": [
                    1.205516241833943,
                    4.997254040282678,
                    0.5249702608112646
                ],
                "label": "O",
                "properties": {}
            },
            {
                "species": [
                    {
                        "element": "O",
                        "occu": 1
                    }
                ],
                "abc": [
                    0.26897243,
                    0.56555906,
                    0.5030019
                ],
                "xyz": [
                    1.0436555872065387,
                    3.083476011084194,
                    2.6490890961469815
                ],
                "label": "O",
                "properties": {}
            },
            {
                "species": [
                    {
                        "element": "O",
                        "occu": 1
                    }
                ],
                "abc": [
                    0.73102757,
                    0.56555906,
                    0.9969981
                ],
                "xyz": [
                    3.082384382793461,
                    3.083476011084194,
                    5.250915118853018
                ],
                "label": "O",
                "properties": {}
            },
            {
                "species": [
                    {
                        "element": "O",
                        "occu": 1
                    }
                ],
                "abc": [
                    0.73102757,
                    0.43444094,
                    0.4969981
                ],
                "xyz": [
                    3.4145787127934613,
                    2.368608888915806,
                    2.6178599438530186
                ],
                "label": "O",
                "properties": {}
            },
            {
                "species": [
                    {
                        "element": "O",
                        "occu": 1
                    }
                ],
                "abc": [
                    0.26897243,
                    0.43444094,
                    0.0030019
                ],
                "xyz": [
                    1.3758499172065386,
                    2.368608888915806,
                    0.016033921146981697
                ],
                "label": "O",
                "properties": {}
            }
        ]
    },
    "spacegroup": {
        "source": "spglib",
        "symbol": "P2/c",
        "number": 13,
        "point_group": "2/m",
        "crystal_system": "monoclinic",
        "hall": "-P 2yc"
    },
    "dielectric": {
        "epsilon_ionic": [
            [
                15.21152419,
                -8e-08,
                3.65418689
            ],
            [
                -8e-08,
                9.76798028,
                -1.1e-07
            ],
            [
                3.65418689,
                -1.1e-07,
                11.34887654
            ]
        ],
        "epsilon_ionic_avg": 12.10946033666667,
        "epsilon_ionic_eig": [
            17.41337027973379,
            9.147030450266211,
            9.767980280000005
        ],
        "epsilon_electronic": [
            [
                4.72969722,
                0.0,
                0.206598
            ],
            [
                0.0,
                4.51297231,
                0.0
            ],
            [
                0.20660456,
                0.0,
                4.60466001
            ]
        ],
        "epsilon_electronic_avg": 4.6157765133333335,
        "epsilon_electronic_eig": [
            4.883031956086086,
            4.451325273913914,
            4.51297231
        ]
    },
    "phonon": {
        "lowest_freq": -0.044049679435254736,
        "frequency": [
            -0.044049679435254736,
            -0.012946757697957913,
            -0.01247445358648065,
            3.5904709693127788,
            3.5985897412102474,
            4.079150302495791,
            4.621089451125763,
            4.903336308330668,
            4.9382907008376895,
            5.205329013871209,
            5.424022848980332,
            6.017054731874318,
            6.244271226980426,
            6.776573424642412,
            8.198893215241545,
            8.231341532461151,
            8.703111161078777,
            8.81030440191483,
            9.229044317022302,
            9.898752251147798,
            9.956257536543312,
            11.594378927165431,
            12.4309546972989,
            12.600502713402957,
            12.668650735878819,
            15.012329414757737,
            15.208142058098066,
            15.366676185284458,
            15.899319925011877,
            17.788073134564602,
            18.431370478232,
            19.117962011608114,
            19.22409844329792,
            19.623439531737596,
            22.403937500587137,
            23.051455943552973
        ]
    },
    "born_effective_charge": {
        "avg_abs_trace": 3.2652275000000004,
        "tensors": [
            [
                [
                    4.61108,
                    -0.00035,
                    0.1314
                ],
                [
                    0.0,
                    3.81338,
                    0.0
                ],
                [
                    0.18379,
                    -0.00032,
                    4.09292
                ]
            ],
            [
                [
                    4.61108,
                    0.00035,
                    0.1314
                ],
                [
                    0.0,
                    3.81238,
                    0.0
                ],
                [
                    0.18379,
                    0.00032,
                    4.09292
                ]
            ],
            [
                [
                    5.56075,
                    3e-05,
                    0.49813
                ],
                [
                    0.0,
                    5.65092,
                    0.0
                ],
                [
                    0.49469,
                    -4e-05,
                    5.65855
                ]
            ],
            [
                [
                    5.56075,
                    -3e-05,
                    0.49813
                ],
                [
                    0.0,
                    5.65081,
                    0.0
                ],
                [
                    0.49469,
                    4e-05,
                    5.65855
                ]
            ],
            [
                [
                    -2.58794,
                    -1.09624,
                    -0.8506
                ],
                [
                    -1.15809,
                    -2.61198,
                    -0.31609
                ],
                [
                    -0.91968,
                    -0.27189,
                    -2.21434
                ]
            ],
            [
                [
                    -2.58803,
                    1.09627,
                    -0.8506
                ],
                [
                    1.15809,
                    -2.61198,
                    0.31609
                ],
                [
                    -0.91967,
                    0.27169,
                    -2.21422
                ]
            ],
            [
                [
                    -2.58803,
                    -1.09627,
                    -0.8506
                ],
                [
                    -1.15817,
                    -2.61204,
                    -0.31559
                ],
                [
                    -0.91967,
                    -0.27169,
                    -2.21422
                ]
            ],
            [
                [
                    -2.58794,
                    1.09624,
                    -0.8506
                ],
                [
                    1.15817,
                    -2.61204,
                    0.31559
                ],
                [
                    -0.91968,
                    0.27189,
                    -2.21434
                ]
            ],
            [
                [
                    -2.49799,
                    0.03378,
                    0.53578
                ],
                [
                    0.13147,
                    -2.11979,
                    0.52933
                ],
                [
                    0.58042,
                    0.54598,
                    -2.66147
                ]
            ],
            [
                [
                    -2.49787,
                    -0.03382,
                    0.5359
                ],
                [
                    -0.13147,
                    -2.11979,
                    -0.52933
                ],
                [
                    0.58045,
                    -0.54622,
                    -2.66144
                ]
            ],
            [
                [
                    -2.49787,
                    0.03382,
                    0.5359
                ],
                [
                    0.13167,
                    -2.11994,
                    0.52893
                ],
                [
                    0.58045,
                    0.54622,
                    -2.66144
                ]
            ],
            [
                [
                    -2.49799,
                    -0.03378,
                    0.53578
                ],
                [
                    -0.13167,
                    -2.11994,
                    -0.52893
                ],
                [
                    0.58042,
                    -0.54598,
                    -2.66147
                ]
            ]
        ]
    },
    "band_gap": 4.3672,
    "is_direct": false,
    "formula": "YTaO4"
}