{
    "mp_id": "mp-560870",
    "nelements": 4,
    "nsites": 24,
    "elements": [
        "B",
        "Ba",
        "Ga",
        "O"
    ],
    "structure": {
        "@module": "pymatgen.core.structure",
        "@class": "Structure",
        "charge": null,
        "lattice": {
            "matrix": [
                [
                    5.87083851,
                    -4.35674091,
                    0.0
                ],
                [
                    5.87083851,
                    4.35674091,
                    0.0
                ],
                [
                    0.0,
                    0.0,
                    5.79982006
                ]
            ],
            "a": 7.310809542544974,
            "b": 7.310809542544974,
            "c": 5.79982006,
            "alpha": 90.0,
            "beta": 90.0,
            "gamma": 73.15811493072657,
            "volume": 296.6923739145313
        },
        "sites": [
            {
                "species": [
                    {
                        "element": "Ba",
                        "occu": 1
                    }
                ],
                "abc": [
                    0.19392657,
                    0.80607343,
                    0.25
                ],
                "xyz": [
                    5.870838509999999,
                    2.666965267890043,
                    1.449955015
                ],
                "label": "Ba",
                "properties": {}
            },
            {
                "species": [
                    {
                        "element": "Ba",
                        "occu": 1
                    }
                ],
                "abc": [
                    0.80607343,
                    0.19392657,
                    0.75
                ],
                "xyz": [
                    5.870838509999999,
                    -2.666965267890043,
                    4.349865045
                ],
                "label": "Ba",
                "properties": {}
            },
            {
                "species": [
                    {
                        "element": "Ga",
                        "occu": 1
                    }
                ],
                "abc": [
                    0.12785966,
                    0.290078,
                    0.25
                ],
                "xyz": [
                    2.4536445091072863,
                    0.7067432782302893,
                    1.449955015
                ],
                "label": "Ga",
                "properties": {}
            },
            {
                "species": [
                    {
                        "element": "Ga",
                        "occu": 1
                    }
                ],
                "abc": [
                    0.290078,
                    0.12785966,
                    0.75
                ],
                "xyz": [
                    2.4536445091072863,
                    -0.7067432782302893,
                    4.349865045
                ],
                "label": "Ga",
                "properties": {}
            },
            {
                "species": [
                    {
                        "element": "Ga",
                        "occu": 1
                    }
                ],
                "abc": [
                    0.709922,
                    0.87214034,
                    0.25
                ],
                "xyz": [
                    9.288032510892712,
                    0.7067432782302889,
                    1.449955015
                ],
                "label": "Ga",
                "properties": {}
            },
            {
                "species": [
                    {
                        "element": "Ga",
                        "occu": 1
                    }
                ],
                "abc": [
                    0.87214034,
                    0.709922,
                    0.75
                ],
                "xyz": [
                    9.288032510892712,
                    -0.7067432782302889,
                    4.349865045
                ],
                "label": "Ga",
                "properties": {}
            },
            {
                "species": [
                    {
                        "element": "B",
                        "occu": 1
                    }
                ],
                "abc": [
                    0.50498862,
                    0.71741947,
                    0.75
                ],
                "xyz": [
                    7.176560489707546,
                    0.9255061747410731,
                    4.349865045
                ],
                "label": "B",
                "properties": {}
            },
            {
                "species": [
                    {
                        "element": "B",
                        "occu": 1
                    }
                ],
                "abc": [
                    0.49501138,
                    0.28258053,
                    0.25
                ],
                "xyz": [
                    4.565116530292453,
                    -0.9255061747410733,
                    1.449955015
                ],
                "label": "B",
                "properties": {}
            },
            {
                "species": [
                    {
                        "element": "B",
                        "occu": 1
                    }
                ],
                "abc": [
                    0.71741947,
                    0.50498862,
                    0.25
                ],
                "xyz": [
                    7.176560489707546,
                    -0.9255061747410731,
                    1.449955015
                ],
                "label": "B",
                "properties": {}
            },
            {
                "species": [
                    {
                        "element": "B",
                        "occu": 1
                    }
                ],
                "abc": [
                    0.28258053,
                    0.49501138,
                    0.75
                ],
                "xyz": [
                    4.565116530292453,
                    0.9255061747410733,
                    4.349865045
                ],
                "label": "B",
                "properties": {}
            },
            {
                "species": [
                    {
                        "element": "O",
                        "occu": 1
                    }
                ],
                "abc": [
                    0.13285028,
                    0.13285028,
                    0.5
                ],
                "xyz": [
                    1.5598850797765653,
                    0.0,
                    2.89991003
                ],
                "label": "O",
                "properties": {}
            },
            {
                "species": [
                    {
                        "element": "O",
                        "occu": 1
                    }
                ],
                "abc": [
                    0.66660279,
                    0.33339721,
                    0.25
                ],
                "xyz": [
                    5.87083851,
                    -1.4516903818262776,
                    1.449955015
                ],
                "label": "O",
                "properties": {}
            },
            {
                "species": [
                    {
                        "element": "O",
                        "occu": 1
                    }
                ],
                "abc": [
                    0.86714972,
                    0.86714972,
                    0.0
                ],
                "xyz": [
                    10.181791940223434,
                    0.0,
                    0.0
                ],
                "label": "O",
                "properties": {}
            },
            {
                "species": [
                    {
                        "element": "O",
                        "occu": 1
                    }
                ],
                "abc": [
                    0.31824684,
                    0.41578133,
                    0.25
                ],
                "xyz": [
                    4.309360847860827,
                    0.4249325027189861,
                    1.449955015
                ],
                "label": "O",
                "properties": {}
            },
            {
                "species": [
                    {
                        "element": "O",
                        "occu": 1
                    }
                ],
                "abc": [
                    0.86714972,
                    0.86714972,
                    0.5
                ],
                "xyz": [
                    10.181791940223434,
                    0.0,
                    2.89991003
                ],
                "label": "O",
                "properties": {}
            },
            {
                "species": [
                    {
                        "element": "O",
                        "occu": 1
                    }
                ],
                "abc": [
                    0.13285028,
                    0.13285028,
                    0.0
                ],
                "xyz": [
                    1.5598850797765653,
                    0.0,
                    0.0
                ],
                "label": "O",
                "properties": {}
            },
            {
                "species": [
                    {
                        "element": "O",
                        "occu": 1
                    }
                ],
                "abc": [
                    0.33339721,
                    0.66660279,
                    0.75
                ],
                "xyz": [
                    5.87083851,
                    1.4516903818262776,
                    4.349865045
                ],
                "label": "O",
                "properties": {}
            },
            {
                "species": [
                    {
                        "element": "O",
                        "occu": 1
                    }
                ],
                "abc": [
                    0.09334917,
                    0.50751238,
                    0.75
                ],
                "xyz": [
                    3.52756112691829,
                    1.804401800423921,
                    4.349865045
                ],
                "label": "O",
                "properties": {}
            },
            {
                "species": [
                    {
                        "element": "O",
                        "occu": 1
                    }
                ],
                "abc": [
                    0.68175316,
                    0.58421867,
                    0.75
                ],
                "xyz": [
                    7.432316172139173,
                    -0.42493250271898564,
                    4.349865045
                ],
                "label": "O",
                "properties": {}
            },
            {
                "species": [
                    {
                        "element": "O",
                        "occu": 1
                    }
                ],
                "abc": [
                    0.50751238,
                    0.09334917,
                    0.25
                ],
                "xyz": [
                    3.52756112691829,
                    -1.804401800423921,
                    1.449955015
                ],
                "label": "O",
                "properties": {}
            },
            {
                "species": [
                    {
                        "element": "O",
                        "occu": 1
                    }
                ],
                "abc": [
                    0.90665083,
                    0.49248762,
                    0.25
                ],
                "xyz": [
                    8.21411589308171,
                    -1.8044018004239213,
                    1.449955015
                ],
                "label": "O",
                "properties": {}
            },
            {
                "species": [
                    {
                        "element": "O",
                        "occu": 1
                    }
                ],
                "abc": [
                    0.58421867,
                    0.68175316,
                    0.25
                ],
                "xyz": [
                    7.432316172139173,
                    0.42493250271898564,
                    1.449955015
                ],
                "label": "O",
                "properties": {}
            },
            {
                "species": [
                    {
                        "element": "O",
                        "occu": 1
                    }
                ],
                "abc": [
                    0.41578133,
                    0.31824684,
                    0.75
                ],
                "xyz": [
                    4.309360847860827,
                    -0.4249325027189861,
                    4.349865045
                ],
                "label": "O",
                "properties": {}
            },
            {
                "species": [
                    {
                        "element": "O",
                        "occu": 1
                    }
                ],
                "abc": [
                    0.49248762,
                    0.90665083,
                    0.75
                ],
                "xyz": [
                    8.21411589308171,
                    1.8044018004239213,
                    4.349865045
                ],
                "label": "O",
                "properties": {}
            }
        ]
    },
    "spacegroup": {
        "source": "spglib",
        "symbol": "Cmcm",
        "number": 63,
        "point_group": "mmm",
        "crystal_system": "orthorhombic",
        "hall": "-C 2c 2"
    },
    "dielectric": {
        "epsilon_ionic": [
            [
                4.87387506,
                -0.0,
                -0.0
            ],
            [
                -0.0,
                4.07513129,
                0.0
            ],
            [
                -0.0,
                0.0,
                7.07154418
            ]
        ],
        "epsilon_ionic_avg": 5.34018351,
        "epsilon_ionic_eig": [
            4.87387506,
            4.07513129,
            7.07154418
        ],
        "epsilon_electronic": [
            [
                3.30295552,
                0.0,
                0.0
            ],
            [
                0.0,
                3.39102481,
                0.0
            ],
            [
                0.0,
                0.0,
                3.053928
            ]
        ],
        "epsilon_electronic_avg": 3.2493027766666667,
        "epsilon_electronic_eig": [
            3.30295552,
            3.39102481,
            3.053928
        ]
    },
    "phonon": {
        "lowest_freq": -0.09592259320412182,
        "frequency": [
            -0.09592259320412182,
            -0.07707698539555277,
            -0.04057411742655405,
            1.3417008404673543,
            2.2010575648160815,
            2.4803083955600242,
            2.54392971523443,
            2.967167105339281,
            3.23254619364577,
            3.509450437522923,
            3.648792294460266,
            3.662846861299499,
            3.723118099130304,
            3.8111625617626133,
            4.151913442235087,
            4.159823092200541,
            4.341368939314635,
            4.731139482977928,
            4.996749577993024,
            5.080030167040661,
            5.565192176850232,
            5.7114503424057395,
            5.751709282633277,
            5.794739201198009,
            5.849902292459186,
            6.971320149561785,
            7.853733746510699,
            8.01260955682971,
            8.334192547368218,
            8.73290216309644,
            8.827570677109462,
            9.03700992588438,
            9.117530412398125,
            9.512081773279718,
            9.564042764844462,
            9.779962490039086,
            12.589412285069113,
            12.81870699255902,
            13.078607170690717,
            13.355015891065637,
            13.53814952753137,
            13.858496652062238,
            14.047595605884656,
            14.064452048767746,
            14.230893510632907,
            15.23454691890585,
            16.88926284727131,
            17.19480364599318,
            18.5877109554147,
            18.717449883161382,
            18.76936393134156,
            19.010208174557643,
            19.38992548167422,
            19.82829082552549,
            20.175959566389867,
            20.37232454645785,
            20.796508932626654,
            20.82317182913181,
            21.778893121826055,
            22.155569977750456,
            25.0099872873767,
            25.069385315765278,
            29.858426114031445,
            30.00905196950038,
            36.57478624074237,
            37.0518249737692,
            38.250101788731065,
            38.9164651298559,
            39.16777432496612,
            40.093172191651576,
            40.098137373991975,
            40.75974144238777
        ]
    },
    "born_effective_charge": {
        "avg_abs_trace": 2.1226654166666665,
        "tensors": [
            [
                [
                    2.79481,
                    3e-05,
                    0.0
                ],
                [
                    0.0,
                    2.93577,
                    0.0
                ],
                [
                    -0.0,
                    -0.00015,
                    2.38122
                ]
            ],
            [
                [
                    2.79481,
                    -3e-05,
                    0.0
                ],
                [
                    0.0,
                    2.93582,
                    0.0
                ],
                [
                    -0.0,
                    0.00015,
                    2.38122
                ]
            ],
            [
                [
                    2.56954,
                    -0.19375,
                    0.0
                ],
                [
                    -0.10704,
                    2.98635,
                    0.0
                ],
                [
                    -0.0,
                    5e-05,
                    2.91759
                ]
            ],
            [
                [
                    2.56954,
                    0.19375,
                    -0.0
                ],
                [
                    0.10704,
                    2.98643,
                    0.0
                ],
                [
                    -0.0,
                    -5e-05,
                    2.91759
                ]
            ],
            [
                [
                    2.56952,
                    0.19374,
                    -0.0
                ],
                [
                    0.10704,
                    2.98635,
                    0.0
                ],
                [
                    0.0,
                    5e-05,
                    2.91759
                ]
            ],
            [
                [
                    2.56952,
                    -0.19374,
                    0.0
                ],
                [
                    -0.10704,
                    2.98643,
                    0.0
                ],
                [
                    0.0,
                    -5e-05,
                    2.91759
                ]
            ],
            [
                [
                    2.85628,
                    -0.44617,
                    0.0
                ],
                [
                    0.34343,
                    2.78054,
                    0.0
                ],
                [
                    -1e-05,
                    3e-05,
                    0.93776
                ]
            ],
            [
                [
                    2.8563,
                    -0.44621,
                    0.0
                ],
                [
                    0.34346,
                    2.78052,
                    0.0
                ],
                [
                    1e-05,
                    -3e-05,
                    0.93776
                ]
            ],
            [
                [
                    2.85628,
                    0.44617,
                    0.0
                ],
                [
                    -0.34346,
                    2.78052,
                    0.0
                ],
                [
                    -1e-05,
                    -3e-05,
                    0.93776
                ]
            ],
            [
                [
                    2.8563,
                    0.44621,
                    0.0
                ],
                [
                    -0.34343,
                    2.78054,
                    0.0
                ],
                [
                    1e-05,
                    3e-05,
                    0.93776
                ]
            ],
            [
                [
                    -1.73728,
                    0.0,
                    0.0
                ],
                [
                    -4e-05,
                    -1.68476,
                    0.12505
                ],
                [
                    -4e-05,
                    0.15383,
                    -2.40903
                ]
            ],
            [
                [
                    -3.08617,
                    8e-05,
                    0.0
                ],
                [
                    0.0,
                    -1.22036,
                    0.0
                ],
                [
                    -0.0,
                    -3e-05,
                    -0.87238
                ]
            ],
            [
                [
                    -1.73726,
                    0.0,
                    0.0
                ],
                [
                    4e-05,
                    -1.68476,
                    -0.12505
                ],
                [
                    4e-05,
                    -0.15383,
                    -2.40903
                ]
            ],
            [
                [
                    -1.81794,
                    0.27123,
                    0.0
                ],
                [
                    0.03868,
                    -2.40484,
                    -0.0
                ],
                [
                    2e-05,
                    -3e-05,
                    -1.12057
                ]
            ],
            [
                [
                    -1.73726,
                    0.0,
                    0.0
                ],
                [
                    4e-05,
                    -1.68476,
                    0.12505
                ],
                [
                    4e-05,
                    0.15383,
                    -2.40903
                ]
            ],
            [
                [
                    -1.73728,
                    0.0,
                    0.0
                ],
                [
                    -4e-05,
                    -1.68476,
                    -0.12505
                ],
                [
                    -4e-05,
                    -0.15383,
                    -2.40903
                ]
            ],
            [
                [
                    -3.08617,
                    -8e-05,
                    0.0
                ],
                [
                    0.0,
                    -1.22034,
                    0.0
                ],
                [
                    -0.0,
                    3e-05,
                    -0.87238
                ]
            ],
            [
                [
                    -1.72492,
                    0.46014,
                    0.0
                ],
                [
                    0.67378,
                    -2.53504,
                    -0.0
                ],
                [
                    -5e-05,
                    -2e-05,
                    -1.08016
                ]
            ],
            [
                [
                    -1.81797,
                    0.27104,
                    0.0
                ],
                [
                    0.03868,
                    -2.40477,
                    -0.0
                ],
                [
                    -2e-05,
                    3e-05,
                    -1.12057
                ]
            ],
            [
                [
                    -1.72492,
                    -0.46014,
                    0.0
                ],
                [
                    -0.67384,
                    -2.53511,
                    0.0
                ],
                [
                    -5e-05,
                    2e-05,
                    -1.08016
                ]
            ],
            [
                [
                    -1.72488,
                    0.45997,
                    0.0
                ],
                [
                    0.67384,
                    -2.53511,
                    0.0
                ],
                [
                    5e-05,
                    2e-05,
                    -1.08016
                ]
            ],
            [
                [
                    -1.81797,
                    -0.27104,
                    0.0
                ],
                [
                    -0.03868,
                    -2.40484,
                    -0.0
                ],
                [
                    -2e-05,
                    -3e-05,
                    -1.12057
                ]
            ],
            [
                [
                    -1.81794,
                    -0.27123,
                    0.0
                ],
                [
                    -0.03868,
                    -2.40477,
                    -0.0
                ],
                [
                    2e-05,
                    3e-05,
                    -1.12057
                ]
            ],
            [
                [
                    -1.72488,
                    -0.45997,
                    0.0
                ],
                [
                    -0.67378,
                    -2.53504,
                    -0.0
                ],
                [
                    5e-05,
                    -2e-05,
                    -1.08016
                ]
            ]
        ]
    },
    "band_gap": 4.0868,
    "is_direct": false,
    "formula": "BaGa2B2O7"
}