{
    "mp_id": "mp-557309",
    "nelements": 4,
    "nsites": 20,
    "elements": [
        "Li",
        "Na",
        "O",
        "W"
    ],
    "structure": {
        "@module": "pymatgen.core.structure",
        "@class": "Structure",
        "charge": null,
        "lattice": {
            "matrix": [
                [
                    5.5741762,
                    0.00034885,
                    -0.00010411
                ],
                [
                    1.7120661,
                    5.7440341,
                    -5.57e-05
                ],
                [
                    2.31055421,
                    1.12251328,
                    6.96895938
                ]
            ],
            "a": 5.574176211888323,
            "b": 5.993754922903882,
            "c": 7.427320624640831,
            "alpha": 76.48573807280731,
            "beta": 71.87564408768438,
            "gamma": 73.39920679715821,
            "volume": 223.13130851201637
        },
        "sites": [
            {
                "species": [
                    {
                        "element": "Na",
                        "occu": 1
                    }
                ],
                "abc": [
                    0.70195305,
                    0.0494907,
                    0.59635164
                ],
                "xyz": [
                    5.375444127005085,
                    0.9539337802041417,
                    4.155874518392357
                ],
                "label": "Na",
                "properties": {}
            },
            {
                "species": [
                    {
                        "element": "Na",
                        "occu": 1
                    }
                ],
                "abc": [
                    0.32158299,
                    0.44615147,
                    0.38700052
                ],
                "xyz": [
                    3.4505867371931944,
                    2.9972346647380945,
                    2.6969325732769103
                ],
                "label": "Na",
                "properties": {}
            },
            {
                "species": [
                    {
                        "element": "Na",
                        "occu": 1
                    }
                ],
                "abc": [
                    0.51795341,
                    0.74533951,
                    0.99037241
                ],
                "xyz": [
                    6.4515432201857985,
                    5.393142431934974,
                    6.901769656822484
                ],
                "label": "Na",
                "properties": {}
            },
            {
                "species": [
                    {
                        "element": "Na",
                        "occu": 1
                    }
                ],
                "abc": [
                    0.67841701,
                    0.55384853,
                    0.61299948
                ],
                "xyz": [
                    6.146209772806805,
                    3.8696615652619055,
                    4.271866996723091
                ],
                "label": "Na",
                "properties": {}
            },
            {
                "species": [
                    {
                        "element": "Na",
                        "occu": 1
                    }
                ],
                "abc": [
                    0.29804695,
                    0.9505093,
                    0.40364836
                ],
                "xyz": [
                    4.221352382994915,
                    5.912962449795859,
                    2.812925051607642
                ],
                "label": "Na",
                "properties": {}
            },
            {
                "species": [
                    {
                        "element": "Na",
                        "occu": 1
                    }
                ],
                "abc": [
                    0.48204659,
                    0.25466049,
                    0.00962759
                ],
                "xyz": [
                    3.145253289814201,
                    1.473753798065026,
                    0.0670299131775163
                ],
                "label": "Na",
                "properties": {}
            },
            {
                "species": [
                    {
                        "element": "Li",
                        "occu": 1
                    }
                ],
                "abc": [
                    0.88884293,
                    0.35866977,
                    0.15832331
                ],
                "xyz": [
                    5.934448050717699,
                    2.2382414803838446,
                    1.1032362009535166
                ],
                "label": "Li",
                "properties": {}
            },
            {
                "species": [
                    {
                        "element": "Li",
                        "occu": 1
                    }
                ],
                "abc": [
                    0.11115707,
                    0.64133023,
                    0.84167669
                ],
                "xyz": [
                    3.6623484592823017,
                    4.628654749616156,
                    5.865563369046484
                ],
                "label": "Li",
                "properties": {}
            },
            {
                "species": [
                    {
                        "element": "W",
                        "occu": 1
                    }
                ],
                "abc": [
                    0.10230669,
                    0.16037069,
                    0.79490207
                ],
                "xyz": [
                    2.681505062657602,
                    1.8134985315638252,
                    5.539620653110988
                ],
                "label": "W",
                "properties": {}
            },
            {
                "species": [
                    {
                        "element": "W",
                        "occu": 1
                    }
                ],
                "abc": [
                    0.89769331,
                    0.83962931,
                    0.20509793
                ],
                "xyz": [
                    6.915291447342398,
                    5.053397698436175,
                    1.4291789168890123
                ],
                "label": "W",
                "properties": {}
            },
            {
                "species": [
                    {
                        "element": "O",
                        "occu": 1
                    }
                ],
                "abc": [
                    0.01187854,
                    0.2304264,
                    0.5670878
                ],
                "xyz": [
                    1.771005406673426,
                    1.960144829394903,
                    3.9519977716682853
                ],
                "label": "O",
                "properties": {}
            },
            {
                "species": [
                    {
                        "element": "O",
                        "occu": 1
                    }
                ],
                "abc": [
                    0.84615971,
                    0.94829427,
                    0.92529656
                ],
                "xyz": [
                    8.478133651578666,
                    6.485987483067758,
                    6.448213227415486
                ],
                "label": "O",
                "properties": {}
            },
            {
                "species": [
                    {
                        "element": "O",
                        "occu": 1
                    }
                ],
                "abc": [
                    0.84320235,
                    0.42214385,
                    0.89312608
                ],
                "xyz": [
                    7.486512870267352,
                    3.4276487061594247,
                    6.224048073529528
                ],
                "label": "O",
                "properties": {}
            },
            {
                "species": [
                    {
                        "element": "O",
                        "occu": 1
                    }
                ],
                "abc": [
                    0.64312309,
                    0.66501248,
                    0.27483331
                ],
                "xyz": [
                    5.358444006502121,
                    4.128582755796872,
                    1.915198176920912
                ],
                "label": "O",
                "properties": {}
            },
            {
                "species": [
                    {
                        "element": "O",
                        "occu": 1
                    }
                ],
                "abc": [
                    0.98812146,
                    0.7695736,
                    0.4329122
                ],
                "xyz": [
                    7.825791103326575,
                    4.9067514006050965,
                    3.0168017983317155
                ],
                "label": "O",
                "properties": {}
            },
            {
                "species": [
                    {
                        "element": "O",
                        "occu": 1
                    }
                ],
                "abc": [
                    0.35253282,
                    0.87888394,
                    0.7242699
                ],
                "xyz": [
                    5.143252321092597,
                    5.861464883430884,
                    5.047321857229314
                ],
                "label": "O",
                "properties": {}
            },
            {
                "species": [
                    {
                        "element": "O",
                        "occu": 1
                    }
                ],
                "abc": [
                    0.64746718,
                    0.12111606,
                    0.2757301
                ],
                "xyz": [
                    4.453544188907403,
                    1.005431346569117,
                    1.9214777127706861
                ],
                "label": "O",
                "properties": {}
            },
            {
                "species": [
                    {
                        "element": "O",
                        "occu": 1
                    }
                ],
                "abc": [
                    0.15384029,
                    0.05170573,
                    0.07470344
                ],
                "xyz": [
                    1.1186628584213332,
                    0.3809087469322427,
                    0.5205863425845143
                ],
                "label": "O",
                "properties": {}
            },
            {
                "species": [
                    {
                        "element": "O",
                        "occu": 1
                    }
                ],
                "abc": [
                    0.15679765,
                    0.57785615,
                    0.10687392
                ],
                "xyz": [
                    2.110283639732648,
                    3.4392475238405753,
                    0.7447514964704731
                ],
                "label": "O",
                "properties": {}
            },
            {
                "species": [
                    {
                        "element": "O",
                        "occu": 1
                    }
                ],
                "abc": [
                    0.35687691,
                    0.33498752,
                    0.72516669
                ],
                "xyz": [
                    4.238352503497879,
                    2.738313474203129,
                    5.053601393079089
                ],
                "label": "O",
                "properties": {}
            }
        ]
    },
    "spacegroup": {
        "source": "spglib",
        "symbol": "P-1",
        "number": 2,
        "point_group": "-1",
        "crystal_system": "triclinic",
        "hall": "-P 1"
    },
    "dielectric": {
        "epsilon_ionic": [
            [
                4.57272439,
                0.96518484,
                0.17979532
            ],
            [
                0.96518484,
                7.96762735,
                -0.69849588
            ],
            [
                0.17979532,
                -0.69849588,
                7.68956294
            ]
        ],
        "epsilon_ionic_avg": 6.7433048933333355,
        "epsilon_ionic_eig": [
            4.279980313509425,
            7.301377261424548,
            8.648557105066033
        ],
        "epsilon_electronic": [
            [
                3.11680412,
                -0.00931952,
                -0.07700231
            ],
            [
                -0.00931086,
                3.44177655,
                -0.03748866
            ],
            [
                -0.0770209,
                -0.03748406,
                3.39217448
            ]
        ],
        "epsilon_electronic_avg": 3.3169183833333324,
        "epsilon_electronic_eig": [
            3.095733766651098,
            3.390359765958815,
            3.4646616173900844
        ]
    },
    "phonon": {
        "lowest_freq": -0.061719301780803495,
        "frequency": [
            -0.061719301780803495,
            -0.03731671345410691,
            -0.02606213794465824,
            2.6901872796864468,
            3.3517825191063633,
            3.6776018635971295,
            4.00526781924035,
            4.621641267330084,
            4.877809150453595,
            4.9253599099633645,
            5.382723118186544,
            5.735406615823091,
            5.853596371579408,
            5.932662803335797,
            6.050528014213786,
            6.429335252366407,
            6.5513393505858355,
            6.719546776450478,
            6.825208321867898,
            7.081093622625747,
            7.198054941862514,
            7.324876206768673,
            7.3583943107403815,
            7.822231410047271,
            7.898413898166223,
            8.06916472641843,
            8.36746874930916,
            8.44226509716242,
            8.540951955609305,
            8.704807509208534,
            8.752300501548524,
            9.12205403495139,
            9.344521407911337,
            9.741227392826751,
            9.789489703637706,
            9.997457698457533,
            10.691220420486026,
            10.70872330754852,
            10.82248086992693,
            10.95238318481336,
            11.677563613703331,
            11.756614472212783,
            12.539316749716658,
            12.793321144826058,
            12.834392526997837,
            13.52829022016822,
            13.660242491049761,
            14.077884238285213,
            14.233361102169209,
            14.614257524040786,
            15.34594827337366,
            16.510185025490337,
            17.899279744691484,
            18.028943250113613,
            19.11790838350755,
            19.189255537354324,
            20.331169656402423,
            20.889643767583767,
            22.74248847037626,
            23.34423995940221
        ]
    },
    "born_effective_charge": {
        "avg_abs_trace": 1.932198,
        "tensors": [
            [
                [
                    1.13411,
                    0.01559,
                    -0.02975
                ],
                [
                    -0.01816,
                    0.73277,
                    0.14888
                ],
                [
                    0.07047,
                    0.25214,
                    1.21144
                ]
            ],
            [
                [
                    1.08831,
                    -0.1062,
                    -0.14227
                ],
                [
                    -0.09909,
                    1.17628,
                    -0.19211
                ],
                [
                    -0.10977,
                    -0.22428,
                    1.17005
                ]
            ],
            [
                [
                    1.35644,
                    -0.11619,
                    0.14476
                ],
                [
                    -0.17261,
                    1.01654,
                    0.04324
                ],
                [
                    -0.0376,
                    0.01945,
                    0.74199
                ]
            ],
            [
                [
                    1.08831,
                    -0.1062,
                    -0.14227
                ],
                [
                    -0.09909,
                    1.17629,
                    -0.19209
                ],
                [
                    -0.10978,
                    -0.22425,
                    1.17006
                ]
            ],
            [
                [
                    1.1341,
                    0.01559,
                    -0.02975
                ],
                [
                    -0.01813,
                    0.73277,
                    0.14888
                ],
                [
                    0.07045,
                    0.25215,
                    1.21147
                ]
            ],
            [
                [
                    1.35642,
                    -0.11619,
                    0.14476
                ],
                [
                    -0.17261,
                    1.01654,
                    0.04326
                ],
                [
                    -0.03763,
                    0.01947,
                    0.74198
                ]
            ],
            [
                [
                    0.61129,
                    0.29599,
                    0.10189
                ],
                [
                    0.40514,
                    1.45219,
                    0.17796
                ],
                [
                    0.1343,
                    0.08006,
                    0.90927
                ]
            ],
            [
                [
                    0.61129,
                    0.29599,
                    0.10188
                ],
                [
                    0.40514,
                    1.45218,
                    0.17796
                ],
                [
                    0.13428,
                    0.08006,
                    0.90924
                ]
            ],
            [
                [
                    4.70207,
                    -0.05211,
                    -0.4208
                ],
                [
                    -0.04737,
                    5.86798,
                    -0.22146
                ],
                [
                    -0.43966,
                    -0.23221,
                    5.81216
                ]
            ],
            [
                [
                    4.70213,
                    -0.05204,
                    -0.42088
                ],
                [
                    -0.04739,
                    5.86794,
                    -0.22146
                ],
                [
                    -0.43954,
                    -0.23226,
                    5.81232
                ]
            ],
            [
                [
                    -1.46962,
                    0.09814,
                    -0.83131
                ],
                [
                    0.12724,
                    -1.04519,
                    0.2063
                ],
                [
                    -1.01988,
                    0.15389,
                    -2.92905
                ]
            ],
            [
                [
                    -1.9241,
                    -0.46455,
                    0.1042
                ],
                [
                    -0.52486,
                    -1.64439,
                    0.6674
                ],
                [
                    0.21545,
                    0.64486,
                    -2.65345
                ]
            ],
            [
                [
                    -1.46671,
                    0.52661,
                    0.1473
                ],
                [
                    0.60647,
                    -2.97669,
                    -0.58559
                ],
                [
                    0.22389,
                    -0.40277,
                    -1.41866
                ]
            ],
            [
                [
                    -2.52683,
                    -0.80053,
                    0.55976
                ],
                [
                    -0.90856,
                    -1.84817,
                    0.20709
                ],
                [
                    0.54716,
                    0.31286,
                    -1.26307
                ]
            ],
            [
                [
                    -1.46979,
                    0.09803,
                    -0.83136
                ],
                [
                    0.12695,
                    -1.04518,
                    0.20633
                ],
                [
                    -1.01997,
                    0.15397,
                    -2.92884
                ]
            ],
            [
                [
                    -1.50482,
                    0.60317,
                    0.36614
                ],
                [
                    0.63178,
                    -2.73134,
                    -0.45184
                ],
                [
                    0.41583,
                    -0.60412,
                    -1.58088
                ]
            ],
            [
                [
                    -1.50501,
                    0.60338,
                    0.36621
                ],
                [
                    0.63184,
                    -2.73143,
                    -0.45172
                ],
                [
                    0.41577,
                    -0.60397,
                    -1.58076
                ]
            ],
            [
                [
                    -1.92394,
                    -0.46443,
                    0.10428
                ],
                [
                    -0.5248,
                    -1.64432,
                    0.66737
                ],
                [
                    0.21541,
                    0.64495,
                    -2.65353
                ]
            ],
            [
                [
                    -1.4666,
                    0.52651,
                    0.14726
                ],
                [
                    0.60652,
                    -2.97662,
                    -0.58545
                ],
                [
                    0.22381,
                    -0.40283,
                    -1.41864
                ]
            ],
            [
                [
                    -2.52705,
                    -0.80055,
                    0.55996
                ],
                [
                    -0.90842,
                    -1.84816,
                    0.20705
                ],
                [
                    0.54702,
                    0.31282,
                    -1.26311
                ]
            ]
        ]
    },
    "band_gap": 3.7133999999999996,
    "is_direct": false,
    "formula": "Na3LiWO5"
}