{
    "mp_id": "mp-556630",
    "nelements": 4,
    "nsites": 22,
    "elements": [
        "Al",
        "As",
        "O",
        "Rb"
    ],
    "structure": {
        "@module": "pymatgen.core.structure",
        "@class": "Structure",
        "charge": null,
        "lattice": {
            "matrix": [
                [
                    6.27912216,
                    -0.00162084,
                    -0.00147012
                ],
                [
                    -1.38508003,
                    6.21920607,
                    0.00075621
                ],
                [
                    -2.03751644,
                    -1.44355617,
                    7.90267345
                ]
            ],
            "a": 6.2791225412933445,
            "b": 6.371575268525296,
            "c": 8.287796770948853,
            "alpha": 96.68767863303263,
            "beta": 104.24233572347205,
            "gamma": 102.57023409783845,
            "volume": 308.57607020787134
        },
        "sites": [
            {
                "species": [
                    {
                        "element": "Rb",
                        "occu": 1
                    }
                ],
                "abc": [
                    0.0,
                    0.0,
                    0.0
                ],
                "xyz": [
                    0.0,
                    0.0,
                    0.0
                ],
                "label": "Rb",
                "properties": {}
            },
            {
                "species": [
                    {
                        "element": "Rb",
                        "occu": 1
                    }
                ],
                "abc": [
                    0.0,
                    0.0,
                    0.5
                ],
                "xyz": [
                    -1.01875822,
                    -0.721778085,
                    3.951336725
                ],
                "label": "Rb",
                "properties": {}
            },
            {
                "species": [
                    {
                        "element": "Al",
                        "occu": 1
                    }
                ],
                "abc": [
                    0.62312935,
                    0.31331273,
                    0.77149983
                ],
                "xyz": [
                    1.906798517581409,
                    0.833843099498166,
                    6.096232078520045
                ],
                "label": "Al",
                "properties": {}
            },
            {
                "species": [
                    {
                        "element": "Al",
                        "occu": 1
                    }
                ],
                "abc": [
                    0.37687065,
                    0.68668727,
                    0.22850017
                ],
                "xyz": [
                    0.9497271724185913,
                    3.940185960501834,
                    1.8057274614799552
                ],
                "label": "Al",
                "properties": {}
            },
            {
                "species": [
                    {
                        "element": "As",
                        "occu": 1
                    }
                ],
                "abc": [
                    0.17562305,
                    0.47149897,
                    0.81357501
                ],
                "xyz": [
                    -1.2079776804989457,
                    1.7576233739150744,
                    6.429515996388322
                ],
                "label": "As",
                "properties": {}
            },
            {
                "species": [
                    {
                        "element": "As",
                        "occu": 1
                    }
                ],
                "abc": [
                    0.82437695,
                    0.52850103,
                    0.18642499
                ],
                "xyz": [
                    4.0645033704989455,
                    3.016405686084926,
                    1.4724435436116778
                ],
                "label": "As",
                "properties": {}
            },
            {
                "species": [
                    {
                        "element": "As",
                        "occu": 1
                    }
                ],
                "abc": [
                    0.50809237,
                    0.75544222,
                    0.66315997
                ],
                "xyz": [
                    0.7928267858281453,
                    3.7401186373307707,
                    5.240561004227999
                ],
                "label": "As",
                "properties": {}
            },
            {
                "species": [
                    {
                        "element": "As",
                        "occu": 1
                    }
                ],
                "abc": [
                    0.49190763,
                    0.24455778,
                    0.33684003
                ],
                "xyz": [
                    2.063698904171854,
                    1.0339104226692304,
                    2.6613985357720016
                ],
                "label": "As",
                "properties": {}
            },
            {
                "species": [
                    {
                        "element": "O",
                        "occu": 1
                    }
                ],
                "abc": [
                    0.33547902,
                    0.28877786,
                    0.81500162
                ],
                "xyz": [
                    0.04595410232831498,
                    0.618924644867838,
                    6.440416846369617
                ],
                "label": "O",
                "properties": {}
            },
            {
                "species": [
                    {
                        "element": "O",
                        "occu": 1
                    }
                ],
                "abc": [
                    0.46422849,
                    0.25537479,
                    0.53453477
                ],
                "xyz": [
                    1.4721094954412757,
                    0.8158450386742131,
                    4.223764380363083
                ],
                "label": "O",
                "properties": {}
            },
            {
                "species": [
                    {
                        "element": "O",
                        "occu": 1
                    }
                ],
                "abc": [
                    0.57921156,
                    0.01105978,
                    0.77322533
                ],
                "xyz": [
                    2.0461621396105505,
                    -1.0483499542778318,
                    6.109704139276135
                ],
                "label": "O",
                "properties": {}
            },
            {
                "species": [
                    {
                        "element": "O",
                        "occu": 1
                    }
                ],
                "abc": [
                    0.32567579,
                    0.38010318,
                    0.21875004
                ],
                "xyz": [
                    1.0727779432563536,
                    2.047634166005092,
                    1.728518788627791
                ],
                "label": "O",
                "properties": {}
            },
            {
                "species": [
                    {
                        "element": "O",
                        "occu": 1
                    }
                ],
                "abc": [
                    0.09438379,
                    0.68128258,
                    0.27411021
                ],
                "xyz": [
                    -0.9094876082579434,
                    3.8411902909935813,
                    2.1665799161433914
                ],
                "label": "O",
                "properties": {}
            },
            {
                "species": [
                    {
                        "element": "O",
                        "occu": 1
                    }
                ],
                "abc": [
                    0.90561621,
                    0.31871742,
                    0.72588979
                ],
                "xyz": [
                    3.7660132982579433,
                    0.9328387690064186,
                    5.735379623856608
                ],
                "label": "O",
                "properties": {}
            },
            {
                "species": [
                    {
                        "element": "O",
                        "occu": 1
                    }
                ],
                "abc": [
                    0.42078844,
                    0.98894022,
                    0.22677467
                ],
                "xyz": [
                    0.8103635503894489,
                    5.822379014277832,
                    1.792255400723865
                ],
                "label": "O",
                "properties": {}
            },
            {
                "species": [
                    {
                        "element": "O",
                        "occu": 1
                    }
                ],
                "abc": [
                    0.66452098,
                    0.71122214,
                    0.18499838
                ],
                "xyz": [
                    2.810571587671686,
                    4.155104415132161,
                    1.4615426936303828
                ],
                "label": "O",
                "properties": {}
            },
            {
                "species": [
                    {
                        "element": "O",
                        "occu": 1
                    }
                ],
                "abc": [
                    0.53577151,
                    0.74462521,
                    0.46546523
                ],
                "xyz": [
                    1.384416194558724,
                    3.958184021325788,
                    3.6781951596369167
                ],
                "label": "O",
                "properties": {}
            },
            {
                "species": [
                    {
                        "element": "O",
                        "occu": 1
                    }
                ],
                "abc": [
                    0.78040744,
                    0.36289294,
                    0.34349669
                ],
                "xyz": [
                    3.6977577331502984,
                    1.759784293389019,
                    2.713669302910345
                ],
                "label": "O",
                "properties": {}
            },
            {
                "species": [
                    {
                        "element": "O",
                        "occu": 1
                    }
                ],
                "abc": [
                    0.67432421,
                    0.61989682,
                    0.78124996
                ],
                "xyz": [
                    1.7837477467436467,
                    2.7263948939949083,
                    6.173440751372209
                ],
                "label": "O",
                "properties": {}
            },
            {
                "species": [
                    {
                        "element": "O",
                        "occu": 1
                    }
                ],
                "abc": [
                    0.21959256,
                    0.63710706,
                    0.65650331
                ],
                "xyz": [
                    -0.8412320431502985,
                    3.014244766610981,
                    5.188290237089655
                ],
                "label": "O",
                "properties": {}
            },
            {
                "species": [
                    {
                        "element": "O",
                        "occu": 1
                    }
                ],
                "abc": [
                    0.22281863,
                    0.64926552,
                    0.9926298
                ],
                "xyz": [
                    -1.522678844959637,
                    2.604638037361591,
                    7.844592577093354
                ],
                "label": "O",
                "properties": {}
            },
            {
                "species": [
                    {
                        "element": "O",
                        "occu": 1
                    }
                ],
                "abc": [
                    0.77718137,
                    0.35073448,
                    0.0073702
                ],
                "xyz": [
                    4.379204534959637,
                    2.169391022638409,
                    0.057366962906646404
                ],
                "label": "O",
                "properties": {}
            }
        ]
    },
    "spacegroup": {
        "source": "spglib",
        "symbol": "P-1",
        "number": 2,
        "point_group": "-1",
        "crystal_system": "triclinic",
        "hall": "-P 1"
    },
    "dielectric": {
        "epsilon_ionic": [
            [
                5.16339248,
                1.21480936,
                -1.77953328
            ],
            [
                1.21480936,
                5.94473362,
                -2.4431555
            ],
            [
                -1.77953328,
                -2.4431555,
                6.30163156
            ]
        ],
        "epsilon_ionic_avg": 5.803252553333333,
        "epsilon_ionic_eig": [
            9.599957965824796,
            4.277981608902064,
            3.5318180852731356
        ],
        "epsilon_electronic": [
            [
                3.01827876,
                0.07200786,
                -0.08727535
            ],
            [
                0.07200795,
                3.05515766,
                0.04728483
            ],
            [
                -0.08727611,
                0.04728435,
                3.04175373
            ]
        ],
        "epsilon_electronic_avg": 3.0383967166666674,
        "epsilon_electronic_eig": [
            2.8960179709914047,
            3.123103076444186,
            3.0960691025644116
        ]
    },
    "phonon": {
        "lowest_freq": -0.04416815966436883,
        "frequency": [
            -0.04416815966436883,
            -0.03649941057225621,
            -0.031553805197134854,
            0.8819044088202067,
            1.5873674098194999,
            2.3732429492513676,
            2.7332558427544837,
            2.902258432948716,
            2.925072040259883,
            3.182412965106171,
            3.2077162851261467,
            3.4636991077625177,
            4.380638442207469,
            4.574094801857097,
            4.634559983725549,
            5.024684028643945,
            5.234290641799859,
            5.355548892666903,
            5.7828885379299795,
            5.820698944666962,
            6.242416777278157,
            6.612036542773808,
            6.644016603180571,
            6.851117959854544,
            7.058189559274122,
            7.400574576956728,
            7.946333607106905,
            8.240433172555253,
            8.548962971311012,
            8.593142876904547,
            9.042748782506733,
            9.183328746556468,
            9.214818199295497,
            9.846578282471034,
            9.896864434693853,
            10.215722158597002,
            10.81587468637957,
            11.232509982474937,
            11.842856388974804,
            11.904934999916236,
            12.467839211994402,
            12.570494158333537,
            13.179354945678911,
            13.986692519389631,
            14.050395779193506,
            14.30003015917376,
            14.478078869967415,
            14.524966333890607,
            14.587111248438239,
            14.730329415100051,
            17.025417164325038,
            17.49279320950803,
            20.918273036467088,
            21.013129638752588,
            25.338808949858144,
            25.440950495814985,
            25.47363749583942,
            25.548969866754206,
            25.791044226928364,
            26.04438686713542,
            26.26829733826941,
            26.433955425143647,
            26.71239366353965,
            26.937200708415595,
            27.979715083893517,
            28.892835787672247
        ]
    },
    "born_effective_charge": {
        "avg_abs_trace": 2.091686060606061,
        "tensors": [
            [
                [
                    1.30735,
                    -0.01042,
                    0.16315
                ],
                [
                    -0.03263,
                    1.39385,
                    -0.03443
                ],
                [
                    0.1702,
                    0.07243,
                    1.15044
                ]
            ],
            [
                [
                    1.33028,
                    0.05722,
                    0.07297
                ],
                [
                    -0.0052,
                    1.3441,
                    0.27571
                ],
                [
                    -0.04709,
                    0.12219,
                    1.19067
                ]
            ],
            [
                [
                    3.44346,
                    -0.31231,
                    -0.45525
                ],
                [
                    -0.13866,
                    3.40002,
                    0.11524
                ],
                [
                    0.50099,
                    -0.00126,
                    3.67391
                ]
            ],
            [
                [
                    3.44344,
                    -0.31233,
                    -0.45527
                ],
                [
                    -0.13866,
                    3.40001,
                    0.11525
                ],
                [
                    0.50102,
                    -0.00123,
                    3.67392
                ]
            ],
            [
                [
                    3.61997,
                    0.54428,
                    -0.46616
                ],
                [
                    0.19099,
                    3.04897,
                    -0.36001
                ],
                [
                    -0.34051,
                    0.15447,
                    3.37257
                ]
            ],
            [
                [
                    3.61993,
                    0.54438,
                    -0.46605
                ],
                [
                    0.19098,
                    3.04892,
                    -0.36004
                ],
                [
                    -0.34051,
                    0.15444,
                    3.37252
                ]
            ],
            [
                [
                    2.97485,
                    0.12386,
                    0.10766
                ],
                [
                    0.4345,
                    3.86832,
                    0.28873
                ],
                [
                    -0.51173,
                    -0.16264,
                    3.25244
                ]
            ],
            [
                [
                    2.97488,
                    0.12386,
                    0.10771
                ],
                [
                    0.4345,
                    3.86834,
                    0.28874
                ],
                [
                    -0.51175,
                    -0.16263,
                    3.25247
                ]
            ],
            [
                [
                    -2.11442,
                    0.20335,
                    0.23691
                ],
                [
                    0.31879,
                    -1.32768,
                    -0.05427
                ],
                [
                    0.21111,
                    -0.06849,
                    -1.23803
                ]
            ],
            [
                [
                    -1.1395,
                    -0.0279,
                    0.14814
                ],
                [
                    -0.07867,
                    -1.24643,
                    -0.02934
                ],
                [
                    0.15097,
                    0.05945,
                    -2.52806
                ]
            ],
            [
                [
                    -1.10872,
                    0.06368,
                    -0.02099
                ],
                [
                    0.11647,
                    -2.86643,
                    -0.48033
                ],
                [
                    -0.07822,
                    -0.35617,
                    -1.26679
                ]
            ],
            [
                [
                    -1.37905,
                    0.39318,
                    -0.23865
                ],
                [
                    0.18316,
                    -1.9259,
                    0.17444
                ],
                [
                    -0.264,
                    0.22973,
                    -1.31959
                ]
            ],
            [
                [
                    -2.44244,
                    -0.37858,
                    -0.03651
                ],
                [
                    -0.3792,
                    -1.2841,
                    -0.1844
                ],
                [
                    -0.14979,
                    -0.19573,
                    -1.31528
                ]
            ],
            [
                [
                    -2.44255,
                    -0.37859,
                    -0.03634
                ],
                [
                    -0.37921,
                    -1.28406,
                    -0.18425
                ],
                [
                    -0.15,
                    -0.19553,
                    -1.31543
                ]
            ],
            [
                [
                    -1.10879,
                    0.06388,
                    -0.02083
                ],
                [
                    0.11656,
                    -2.86601,
                    -0.48024
                ],
                [
                    -0.07826,
                    -0.35614,
                    -1.26691
                ]
            ],
            [
                [
                    -2.11445,
                    0.20324,
                    0.23715
                ],
                [
                    0.31873,
                    -1.32742,
                    -0.05432
                ],
                [
                    0.21117,
                    -0.06878,
                    -1.23799
                ]
            ],
            [
                [
                    -1.1392,
                    -0.02792,
                    0.14809
                ],
                [
                    -0.07879,
                    -1.2467,
                    -0.02953
                ],
                [
                    0.15118,
                    0.05935,
                    -2.52805
                ]
            ],
            [
                [
                    -1.9368,
                    -0.78056,
                    0.43846
                ],
                [
                    -0.78657,
                    -1.86256,
                    0.65633
                ],
                [
                    0.40456,
                    0.61124,
                    -1.3186
                ]
            ],
            [
                [
                    -1.37903,
                    0.39339,
                    -0.23886
                ],
                [
                    0.18321,
                    -1.92563,
                    0.17464
                ],
                [
                    -0.26384,
                    0.22973,
                    -1.31948
                ]
            ],
            [
                [
                    -1.93664,
                    -0.78036,
                    0.43844
                ],
                [
                    -0.78675,
                    -1.86235,
                    0.65639
                ],
                [
                    0.40474,
                    0.61144,
                    -1.31869
                ]
            ],
            [
                [
                    -1.23647,
                    0.14739,
                    0.16822
                ],
                [
                    0.15831,
                    -1.17369,
                    -0.2472
                ],
                [
                    0.01472,
                    -0.36773,
                    -2.48289
                ]
            ],
            [
                [
                    -1.23612,
                    0.14728,
                    0.16801
                ],
                [
                    0.15814,
                    -1.17356,
                    -0.24707
                ],
                [
                    0.01504,
                    -0.36814,
                    -2.48316
                ]
            ]
        ]
    },
    "band_gap": 3.1654000000000004,
    "is_direct": false,
    "formula": "RbAlAs2O7"
}