{
    "mp_id": "mp-5594",
    "nelements": 3,
    "nsites": 11,
    "elements": [
        "O",
        "Sc",
        "Si"
    ],
    "structure": {
        "@module": "pymatgen.core.structure",
        "@class": "Structure",
        "charge": null,
        "lattice": {
            "matrix": [
                [
                    3.2273781,
                    -4.23546897,
                    0.00019465
                ],
                [
                    3.2273781,
                    4.23546897,
                    0.00019465
                ],
                [
                    -1.02171882,
                    0.0,
                    4.58500673
                ]
            ],
            "a": 5.3249569795521445,
            "b": 5.3249569795521445,
            "c": 4.697466983522873,
            "alpha": 97.57306610623824,
            "beta": 97.57306610623824,
            "gamma": 105.38604165819454,
            "volume": 125.35081500902702
        },
        "sites": [
            {
                "species": [
                    {
                        "element": "Sc",
                        "occu": 1
                    }
                ],
                "abc": [
                    0.30964907,
                    0.69035093,
                    0.0
                ],
                "xyz": [
                    3.2273781,
                    1.6124509148512842,
                    0.00019465
                ],
                "label": "Sc",
                "properties": {}
            },
            {
                "species": [
                    {
                        "element": "Sc",
                        "occu": 1
                    }
                ],
                "abc": [
                    0.69035093,
                    0.30964907,
                    0.0
                ],
                "xyz": [
                    3.2273781,
                    -1.6124509148512842,
                    0.00019465
                ],
                "label": "Sc",
                "properties": {}
            },
            {
                "species": [
                    {
                        "element": "Si",
                        "occu": 1
                    }
                ],
                "abc": [
                    0.227068,
                    0.227068,
                    0.40721282
                ],
                "xyz": [
                    1.0496115788823277,
                    0.0,
                    1.8671619178146783
                ],
                "label": "Si",
                "properties": {}
            },
            {
                "species": [
                    {
                        "element": "Si",
                        "occu": 1
                    }
                ],
                "abc": [
                    0.772932,
                    0.772932,
                    0.59278718
                ],
                "xyz": [
                    4.3834258011176725,
                    0.0,
                    2.7182341121853213
                ],
                "label": "Si",
                "properties": {}
            },
            {
                "species": [
                    {
                        "element": "O",
                        "occu": 1
                    }
                ],
                "abc": [
                    0.92243426,
                    0.60333563,
                    0.7883861
                ],
                "xyz": [
                    4.118727412829007,
                    -1.351532345734511,
                    3.6150525654475416
                ],
                "label": "O",
                "properties": {}
            },
            {
                "species": [
                    {
                        "element": "O",
                        "occu": 1
                    }
                ],
                "abc": [
                    0.39666437,
                    0.07756574,
                    0.2116139
                ],
                "xyz": [
                    1.3143099671709928,
                    -1.3515323457345112,
                    0.9703434645524585
                ],
                "label": "O",
                "properties": {}
            },
            {
                "species": [
                    {
                        "element": "O",
                        "occu": 1
                    }
                ],
                "abc": [
                    0.07756574,
                    0.39666437,
                    0.2116139
                ],
                "xyz": [
                    1.3143099671709928,
                    1.3515323457345112,
                    0.9703434645524585
                ],
                "label": "O",
                "properties": {}
            },
            {
                "species": [
                    {
                        "element": "O",
                        "occu": 1
                    }
                ],
                "abc": [
                    0.60333563,
                    0.92243426,
                    0.7883861
                ],
                "xyz": [
                    4.118727412829007,
                    1.351532345734511,
                    3.6150525654475416
                ],
                "label": "O",
                "properties": {}
            },
            {
                "species": [
                    {
                        "element": "O",
                        "occu": 1
                    }
                ],
                "abc": [
                    0.0,
                    0.0,
                    0.5
                ],
                "xyz": [
                    -0.51085941,
                    0.0,
                    2.292503365
                ],
                "label": "O",
                "properties": {}
            },
            {
                "species": [
                    {
                        "element": "O",
                        "occu": 1
                    }
                ],
                "abc": [
                    0.6017506,
                    0.6017506,
                    0.27805774
                ],
                "xyz": [
                    3.6000565901990536,
                    0.0,
                    1.2751308707371702
                ],
                "label": "O",
                "properties": {}
            },
            {
                "species": [
                    {
                        "element": "O",
                        "occu": 1
                    }
                ],
                "abc": [
                    0.3982494,
                    0.3982494,
                    0.72194226
                ],
                "xyz": [
                    1.832980789800947,
                    0.0,
                    3.31026515926283
                ],
                "label": "O",
                "properties": {}
            }
        ]
    },
    "spacegroup": {
        "source": "spglib",
        "symbol": "C2/m",
        "number": 12,
        "point_group": "2/m",
        "crystal_system": "monoclinic",
        "hall": "-C 2y"
    },
    "dielectric": {
        "epsilon_ionic": [
            [
                8.31796159,
                0.0,
                -0.57085648
            ],
            [
                0.0,
                6.19928498,
                0.0
            ],
            [
                -0.57085648,
                0.0,
                5.70647703
            ]
        ],
        "epsilon_ionic_avg": 6.7412412,
        "epsilon_ionic_eig": [
            8.437294754507267,
            5.587143865492732,
            6.19928498
        ],
        "epsilon_electronic": [
            [
                3.77436235,
                0.0,
                0.04999932
            ],
            [
                0.0,
                3.65010766,
                0.0
            ],
            [
                0.05001164,
                0.0,
                3.4393592
            ]
        ],
        "epsilon_electronic_avg": 3.6212764033333333,
        "epsilon_electronic_eig": [
            3.781667312691144,
            3.432054237308856,
            3.65010766
        ]
    },
    "phonon": {
        "lowest_freq": -0.0389063896313915,
        "frequency": [
            -0.0389063896313915,
            -0.024720550234867765,
            -0.013303758004135965,
            4.203154634917767,
            4.485223662275599,
            5.294013594481333,
            5.914570143300453,
            7.124781639385547,
            7.312910142911469,
            8.019588975325933,
            8.285958634987733,
            9.28068196942072,
            10.209291166707718,
            10.3843252351483,
            11.127767759518616,
            11.391286457693074,
            11.801982734192762,
            13.038221939377785,
            13.34224379461183,
            14.148320536122386,
            14.590501484606548,
            14.785569614665649,
            14.817375515226383,
            16.0159675382973,
            17.547581636651906,
            19.992688588229157,
            24.739111133754832,
            25.913919321626345,
            26.02614373552491,
            27.165984746987462,
            27.260878981185872,
            27.54352757183854,
            34.12884980730291
        ]
    },
    "born_effective_charge": {
        "avg_abs_trace": 2.720775454545454,
        "tensors": [
            [
                [
                    4.19084,
                    2e-05,
                    0.14789
                ],
                [
                    -0.0,
                    4.02933,
                    0.0
                ],
                [
                    0.21145,
                    -5e-05,
                    3.23884
                ]
            ],
            [
                [
                    4.19084,
                    -2e-05,
                    0.14789
                ],
                [
                    0.0,
                    4.02915,
                    0.0
                ],
                [
                    0.21145,
                    5e-05,
                    3.23884
                ]
            ],
            [
                [
                    3.7191,
                    0.0,
                    -0.03333
                ],
                [
                    -1e-05,
                    3.38422,
                    -1e-05
                ],
                [
                    -0.16613,
                    -0.0,
                    3.88413
                ]
            ],
            [
                [
                    3.71908,
                    0.0,
                    -0.03339
                ],
                [
                    1e-05,
                    3.38422,
                    1e-05
                ],
                [
                    -0.16612,
                    -0.0,
                    3.88417
                ]
            ],
            [
                [
                    -2.30064,
                    0.28143,
                    0.08306
                ],
                [
                    0.35283,
                    -2.262,
                    0.78956
                ],
                [
                    0.10069,
                    0.73587,
                    -1.83053
                ]
            ],
            [
                [
                    -2.30063,
                    -0.28147,
                    0.08307
                ],
                [
                    -0.35283,
                    -2.262,
                    -0.78956
                ],
                [
                    0.10073,
                    -0.73579,
                    -1.83044
                ]
            ],
            [
                [
                    -2.30063,
                    0.28147,
                    0.08307
                ],
                [
                    0.35283,
                    -2.26193,
                    0.78963
                ],
                [
                    0.10073,
                    0.73579,
                    -1.83044
                ]
            ],
            [
                [
                    -2.30064,
                    -0.28143,
                    0.08306
                ],
                [
                    -0.35283,
                    -2.26193,
                    -0.78963
                ],
                [
                    0.10069,
                    -0.73587,
                    -1.83053
                ]
            ],
            [
                [
                    -3.25664,
                    0.0,
                    0.58001
                ],
                [
                    -0.0,
                    -1.21421,
                    0.0
                ],
                [
                    0.53679,
                    -0.0,
                    -1.50142
                ]
            ],
            [
                [
                    -1.68033,
                    0.0,
                    -0.57069
                ],
                [
                    -3e-05,
                    -2.28244,
                    -6e-05
                ],
                [
                    -0.51521,
                    -0.0,
                    -2.71135
                ]
            ],
            [
                [
                    -1.68036,
                    0.0,
                    -0.57062
                ],
                [
                    3e-05,
                    -2.28244,
                    6e-05
                ],
                [
                    -0.51507,
                    -0.0,
                    -2.7113
                ]
            ]
        ]
    },
    "band_gap": 4.2868,
    "is_direct": false,
    "formula": "Sc2Si2O7"
}