{
    "mp_id": "mp-554773",
    "nelements": 4,
    "nsites": 28,
    "elements": [
        "B",
        "La",
        "O",
        "W"
    ],
    "structure": {
        "@module": "pymatgen.core.structure",
        "@class": "Structure",
        "charge": null,
        "lattice": {
            "matrix": [
                [
                    8.79432831,
                    -7e-07,
                    0.0
                ],
                [
                    -4.39716405,
                    7.61611248,
                    0.0
                ],
                [
                    0.0,
                    0.0,
                    5.59593302
                ]
            ],
            "a": 8.794328310000026,
            "b": 8.794328910759715,
            "c": 5.59593302,
            "alpha": 90.0,
            "beta": 90.0,
            "gamma": 120.00000151089795,
            "volume": 374.8077063071027
        },
        "sites": [
            {
                "species": [
                    {
                        "element": "La",
                        "occu": 1
                    }
                ],
                "abc": [
                    0.91720171,
                    0.27670217,
                    0.21700329
                ],
                "xyz": [
                    6.849468129752421,
                    2.1073942081388846,
                    1.2143358759596359
                ],
                "label": "La",
                "properties": {}
            },
            {
                "species": [
                    {
                        "element": "La",
                        "occu": 1
                    }
                ],
                "abc": [
                    0.72329783,
                    0.64049955,
                    0.21700329
                ],
                "xyz": [
                    3.5445369876293893,
                    4.878116109880903,
                    1.2143358759596359
                ],
                "label": "La",
                "properties": {}
            },
            {
                "species": [
                    {
                        "element": "La",
                        "occu": 1
                    }
                ],
                "abc": [
                    0.27670217,
                    0.35950045,
                    0.71700329
                ],
                "xyz": [
                    0.8526272723706103,
                    2.7379956701190973,
                    4.012302385959636
                ],
                "label": "La",
                "properties": {}
            },
            {
                "species": [
                    {
                        "element": "La",
                        "occu": 1
                    }
                ],
                "abc": [
                    0.08279829,
                    0.72329783,
                    0.71700329
                ],
                "xyz": [
                    -2.4523038697524218,
                    5.508717571861116,
                    4.012302385959636
                ],
                "label": "La",
                "properties": {}
            },
            {
                "species": [
                    {
                        "element": "La",
                        "occu": 1
                    }
                ],
                "abc": [
                    0.35950045,
                    0.08279829,
                    0.21700329
                ],
                "xyz": [
                    2.797487320703265,
                    0.6306008381413442,
                    1.2143358759596359
                ],
                "label": "La",
                "properties": {}
            },
            {
                "species": [
                    {
                        "element": "La",
                        "occu": 1
                    }
                ],
                "abc": [
                    0.64049955,
                    0.91720171,
                    0.71700329
                ],
                "xyz": [
                    1.5996769392967352,
                    6.985510941858655,
                    4.012302385959636
                ],
                "label": "La",
                "properties": {}
            },
            {
                "species": [
                    {
                        "element": "B",
                        "occu": 1
                    }
                ],
                "abc": [
                    0.0,
                    0.0,
                    0.87629834
                ],
                "xyz": [
                    0.0,
                    0.0,
                    4.903706816177187
                ],
                "label": "B",
                "properties": {}
            },
            {
                "species": [
                    {
                        "element": "B",
                        "occu": 1
                    }
                ],
                "abc": [
                    0.0,
                    0.0,
                    0.37629834
                ],
                "xyz": [
                    0.0,
                    0.0,
                    2.105740306177187
                ],
                "label": "B",
                "properties": {}
            },
            {
                "species": [
                    {
                        "element": "W",
                        "occu": 1
                    }
                ],
                "abc": [
                    0.666667,
                    0.333333,
                    0.75731214
                ],
                "xyz": [
                    4.397168587164119,
                    2.53870115462894,
                    4.237868010672863
                ],
                "label": "W",
                "properties": {}
            },
            {
                "species": [
                    {
                        "element": "W",
                        "occu": 1
                    }
                ],
                "abc": [
                    0.333333,
                    0.666667,
                    0.25731214
                ],
                "xyz": [
                    -4.32716412035461e-06,
                    5.077410625371059,
                    1.439901500672863
                ],
                "label": "W",
                "properties": {}
            },
            {
                "species": [
                    {
                        "element": "O",
                        "occu": 1
                    }
                ],
                "abc": [
                    0.38124141,
                    0.86054068,
                    0.47745732
                ],
                "xyz": [
                    -0.43117641675123686,
                    6.553974345626699,
                    2.6718191826287065
                ],
                "label": "O",
                "properties": {}
            },
            {
                "species": [
                    {
                        "element": "O",
                        "occu": 1
                    }
                ],
                "abc": [
                    0.47929927,
                    0.61875859,
                    0.47745732
                ],
                "xyz": [
                    1.494332111546644,
                    4.712534683896714,
                    2.6718191826287065
                ],
                "label": "O",
                "properties": {}
            },
            {
                "species": [
                    {
                        "element": "O",
                        "occu": 1
                    }
                ],
                "abc": [
                    0.12963485,
                    0.17474139,
                    0.36894675
                ],
                "xyz": [
                    0.3716848731625739,
                    1.330849990407152,
                    2.064601300946685
                ],
                "label": "O",
                "properties": {}
            },
            {
                "species": [
                    {
                        "element": "O",
                        "occu": 1
                    }
                ],
                "abc": [
                    0.52852172,
                    0.73047426,
                    0.05325615
                ],
                "xyz": [
                    1.4359783691235397,
                    5.563373757939561,
                    0.29801784830307304
                ],
                "label": "O",
                "properties": {}
            },
            {
                "species": [
                    {
                        "element": "O",
                        "occu": 1
                    }
                ],
                "abc": [
                    0.17474139,
                    0.04510554,
                    0.86894675
                ],
                "xyz": [
                    1.3383966940619136,
                    0.3435287437921662,
                    4.862567810946685
                ],
                "label": "O",
                "properties": {}
            },
            {
                "species": [
                    {
                        "element": "O",
                        "occu": 1
                    }
                ],
                "abc": [
                    0.87036515,
                    0.82525861,
                    0.86894675
                ],
                "xyz": [
                    4.025479386837427,
                    6.285261789592847,
                    4.862567810946685
                ],
                "label": "O",
                "properties": {}
            },
            {
                "species": [
                    {
                        "element": "O",
                        "occu": 1
                    }
                ],
                "abc": [
                    0.26952574,
                    0.79804746,
                    0.05325615
                ],
                "xyz": [
                    -1.1388477557501138,
                    6.078019031070283,
                    0.29801784830307304
                ],
                "label": "O",
                "properties": {}
            },
            {
                "species": [
                    {
                        "element": "O",
                        "occu": 1
                    }
                ],
                "abc": [
                    0.20195254,
                    0.47147828,
                    0.05325615
                ],
                "xyz": [
                    -0.29713040337342655,
                    3.5908314709901568,
                    0.29801784830307304
                ],
                "label": "O",
                "properties": {}
            },
            {
                "species": [
                    {
                        "element": "O",
                        "occu": 1
                    }
                ],
                "abc": [
                    0.86054068,
                    0.47929927,
                    0.97745732
                ],
                "xyz": [
                    5.460319744795406,
                    3.6503965495234136,
                    5.469785692628706
                ],
                "label": "O",
                "properties": {}
            },
            {
                "species": [
                    {
                        "element": "O",
                        "occu": 1
                    }
                ],
                "abc": [
                    0.95489446,
                    0.12963485,
                    0.86894675
                ],
                "xyz": [
                    7.827629680593019,
                    0.9873129305018059,
                    4.862567810946685
                ],
                "label": "O",
                "properties": {}
            },
            {
                "species": [
                    {
                        "element": "O",
                        "occu": 1
                    }
                ],
                "abc": [
                    0.73047426,
                    0.20195254,
                    0.55325615
                ],
                "xyz": [
                    5.536012015750113,
                    1.5380927489297171,
                    3.095984358303073
                ],
                "label": "O",
                "properties": {}
            },
            {
                "species": [
                    {
                        "element": "O",
                        "occu": 1
                    }
                ],
                "abc": [
                    0.04510554,
                    0.87036515,
                    0.36894675
                ],
                "xyz": [
                    -3.43046542059302,
                    6.628798849498194,
                    2.064601300946685
                ],
                "label": "O",
                "properties": {}
            },
            {
                "species": [
                    {
                        "element": "O",
                        "occu": 1
                    }
                ],
                "abc": [
                    0.61875859,
                    0.13945932,
                    0.97745732
                ],
                "xyz": [
                    4.828340676751236,
                    1.0621374343733005,
                    5.469785692628706
                ],
                "label": "O",
                "properties": {}
            },
            {
                "species": [
                    {
                        "element": "O",
                        "occu": 1
                    }
                ],
                "abc": [
                    0.82525861,
                    0.95489446,
                    0.36894675
                ],
                "xyz": [
                    3.0587675659380853,
                    7.272583036207834,
                    2.064601300946685
                ],
                "label": "O",
                "properties": {}
            },
            {
                "species": [
                    {
                        "element": "O",
                        "occu": 1
                    }
                ],
                "abc": [
                    0.79804746,
                    0.52852172,
                    0.55325615
                ],
                "xyz": [
                    4.694294663373427,
                    4.025280309009843,
                    3.095984358303073
                ],
                "label": "O",
                "properties": {}
            },
            {
                "species": [
                    {
                        "element": "O",
                        "occu": 1
                    }
                ],
                "abc": [
                    0.47147828,
                    0.26952574,
                    0.55325615
                ],
                "xyz": [
                    2.9611858908764597,
                    2.0527380220604394,
                    3.095984358303073
                ],
                "label": "O",
                "properties": {}
            },
            {
                "species": [
                    {
                        "element": "O",
                        "occu": 1
                    }
                ],
                "abc": [
                    0.52070073,
                    0.38124141,
                    0.97745732
                ],
                "xyz": [
                    2.9028321484533546,
                    2.9035770961032856,
                    5.469785692628706
                ],
                "label": "O",
                "properties": {}
            },
            {
                "species": [
                    {
                        "element": "O",
                        "occu": 1
                    }
                ],
                "abc": [
                    0.13945932,
                    0.52070073,
                    0.47745732
                ],
                "xyz": [
                    -1.0631554847954072,
                    3.9657152304765857,
                    2.6718191826287065
                ],
                "label": "O",
                "properties": {}
            }
        ]
    },
    "spacegroup": {
        "source": "spglib",
        "symbol": "P6_3",
        "number": 173,
        "point_group": "6",
        "crystal_system": "hexagonal",
        "hall": "P 6c"
    },
    "dielectric": {
        "epsilon_ionic": [
            [
                11.83838116,
                4.95e-06,
                -6.864e-05
            ],
            [
                4.95e-06,
                11.83792782,
                2.21e-05
            ],
            [
                -6.864e-05,
                2.21e-05,
                15.52253422
            ]
        ],
        "epsilon_ionic_avg": 13.066281066666667,
        "epsilon_ionic_eig": [
            15.522534221411386,
            11.838381212772685,
            11.837927765815929
        ],
        "epsilon_electronic": [
            [
                4.51986149,
                -1.57e-06,
                0.0
            ],
            [
                2.17e-06,
                4.5198611,
                0.0
            ],
            [
                0.0,
                0.0,
                4.6015575
            ]
        ],
        "epsilon_electronic_avg": 4.5470933633333335,
        "epsilon_electronic_eig": [
            4.519861295,
            4.519861295,
            4.6015575
        ]
    },
    "phonon": {
        "lowest_freq": -0.09597046743193184,
        "frequency": [
            -0.09597046743193184,
            -0.016510252601009027,
            -0.016510251342759838,
            2.0756351785502356,
            2.5633061186185295,
            2.7646847368677503,
            2.764684772228039,
            2.8684254097316475,
            2.8684254821546946,
            3.06691070134928,
            3.1903869834993346,
            3.1903871673517328,
            3.319009321943076,
            3.5256645110855978,
            3.7310153509315334,
            3.731015370583031,
            3.9474580011419653,
            3.947458016620289,
            4.4940280887049395,
            4.494028289923189,
            4.576638600332495,
            4.9289113250953625,
            4.928911493684405,
            5.2843522678939365,
            5.568904440830457,
            5.748451240584878,
            5.748451410648165,
            5.858315216159557,
            5.85831527873731,
            6.428898807066703,
            6.71144686713719,
            6.711447176668222,
            6.782792581298358,
            6.843514261448348,
            6.843514386442674,
            6.898065090889116,
            7.092650643283923,
            7.727174326538125,
            7.8895059728172585,
            7.889506220640255,
            7.974145152599901,
            8.435474439409804,
            8.435474540814944,
            8.480060542537233,
            8.480060643409207,
            9.11068907435359,
            9.371169258502423,
            9.371169284582427,
            10.989101407822762,
            11.307037233550474,
            11.409520527558856,
            11.409520955973225,
            12.068382075559496,
            12.068382409705539,
            14.128434428219023,
            14.128434644449747,
            14.313368046875013,
            14.313368277386918,
            15.199495448412346,
            15.698303176023714,
            15.698303253866563,
            15.909567110551944,
            15.909567264170285,
            16.366608319429503,
            16.560691888870835,
            16.822977250848634,
            16.82297732348742,
            16.916177743257798,
            17.137063000825982,
            17.137063072133454,
            19.02353685518597,
            19.02353730483971,
            19.193462131171305,
            19.19346244950904,
            19.409486166433965,
            21.797536019852696,
            23.008362713983495,
            23.097637936542803,
            26.921263423247698,
            27.143603042188648,
            36.72151607735219,
            36.72151860644295,
            38.160699744722294,
            38.16070246663392
        ]
    },
    "born_effective_charge": {
        "avg_abs_trace": 3.0818748809523813,
        "tensors": [
            [
                [
                    4.65595,
                    0.20185,
                    -0.13521
                ],
                [
                    0.17197,
                    3.90307,
                    -0.03155
                ],
                [
                    0.18596,
                    -0.43375,
                    4.32849
                ]
            ],
            [
                [
                    4.25308,
                    -0.40436,
                    0.09488
                ],
                [
                    -0.43449,
                    4.30583,
                    -0.10136
                ],
                [
                    0.28266,
                    0.37792,
                    4.32849
                ]
            ],
            [
                [
                    4.25305,
                    -0.40437,
                    -0.0949
                ],
                [
                    -0.43447,
                    4.30581,
                    0.10137
                ],
                [
                    -0.28266,
                    -0.37792,
                    4.32849
                ]
            ],
            [
                [
                    4.65596,
                    0.20187,
                    0.13517
                ],
                [
                    0.17193,
                    3.90314,
                    0.03152
                ],
                [
                    -0.18596,
                    0.43375,
                    4.32849
                ]
            ],
            [
                [
                    3.92953,
                    0.24741,
                    0.04027
                ],
                [
                    0.21754,
                    4.6294,
                    0.13288
                ],
                [
                    -0.46862,
                    0.05583,
                    4.32849
                ]
            ],
            [
                [
                    3.92957,
                    0.24742,
                    -0.04028
                ],
                [
                    0.21761,
                    4.62941,
                    -0.13289
                ],
                [
                    0.46862,
                    -0.05583,
                    4.32849
                ]
            ],
            [
                [
                    2.86337,
                    0.078,
                    -6e-05
                ],
                [
                    -0.07799,
                    2.86336,
                    -8e-05
                ],
                [
                    0.0,
                    -0.0,
                    0.77621
                ]
            ],
            [
                [
                    2.86338,
                    0.078,
                    6e-05
                ],
                [
                    -0.078,
                    2.86335,
                    8e-05
                ],
                [
                    0.0,
                    -0.0,
                    0.77621
                ]
            ],
            [
                [
                    5.99231,
                    -0.054,
                    0.0001
                ],
                [
                    0.05393,
                    5.99221,
                    -0.00022
                ],
                [
                    0.0,
                    -0.0,
                    7.56955
                ]
            ],
            [
                [
                    5.99228,
                    -0.05397,
                    -0.00021
                ],
                [
                    0.05397,
                    5.99222,
                    0.00017
                ],
                [
                    0.0,
                    -0.0,
                    7.56955
                ]
            ],
            [
                [
                    -1.9996,
                    0.24287,
                    -0.12589
                ],
                [
                    0.22792,
                    -2.71341,
                    -0.71629
                ],
                [
                    -0.05783,
                    -0.82634,
                    -2.65571
                ]
            ],
            [
                [
                    -2.73887,
                    0.19896,
                    -0.55741
                ],
                [
                    0.18407,
                    -1.9743,
                    0.46728
                ],
                [
                    -0.68671,
                    0.46325,
                    -2.65571
                ]
            ],
            [
                [
                    -2.20694,
                    -0.21059,
                    -0.21569
                ],
                [
                    -0.03611,
                    -2.69527,
                    -0.38701
                ],
                [
                    -0.2135,
                    -0.26455,
                    -1.6133
                ]
            ],
            [
                [
                    -3.22006,
                    -0.30146,
                    0.93439
                ],
                [
                    -0.41506,
                    -1.62748,
                    1.15446
                ],
                [
                    0.88538,
                    0.92735,
                    -2.8414
                ]
            ],
            [
                [
                    -2.68012,
                    -0.23691,
                    -0.44293
                ],
                [
                    -0.06249,
                    -2.22214,
                    -0.00667
                ],
                [
                    -0.33586,
                    0.05262,
                    -1.6133
                ]
            ],
            [
                [
                    -2.20691,
                    -0.21058,
                    0.2157
                ],
                [
                    -0.0361,
                    -2.69528,
                    0.38698
                ],
                [
                    0.2135,
                    0.26455,
                    -1.6133
                ]
            ],
            [
                [
                    -2.33579,
                    0.92557,
                    -1.4668
                ],
                [
                    0.81197,
                    -2.51146,
                    0.23201
                ],
                [
                    -1.2458,
                    0.30308,
                    -2.8414
                ]
            ],
            [
                [
                    -1.7153,
                    -0.45378,
                    0.53271
                ],
                [
                    -0.56743,
                    -3.13211,
                    -1.38652
                ],
                [
                    0.36042,
                    -1.23043,
                    -2.8414
                ]
            ],
            [
                [
                    -2.33126,
                    -0.41945,
                    -0.68339
                ],
                [
                    -0.43421,
                    -2.38198,
                    -0.24911
                ],
                [
                    -0.74455,
                    -0.36308,
                    -2.65571
                ]
            ],
            [
                [
                    -2.46628,
                    0.18587,
                    0.22733
                ],
                [
                    0.36028,
                    -2.43583,
                    -0.38029
                ],
                [
                    0.12236,
                    -0.31717,
                    -1.6133
                ]
            ],
            [
                [
                    -2.33582,
                    0.92559,
                    1.46685
                ],
                [
                    0.81195,
                    -2.51148,
                    -0.23199
                ],
                [
                    1.2458,
                    -0.30308,
                    -2.8414
                ]
            ],
            [
                [
                    -2.46629,
                    0.18589,
                    -0.22733
                ],
                [
                    0.36028,
                    -2.43582,
                    0.38032
                ],
                [
                    -0.12236,
                    0.31717,
                    -1.6133
                ]
            ],
            [
                [
                    -1.99959,
                    0.24283,
                    0.12594
                ],
                [
                    0.22797,
                    -2.71338,
                    0.71636
                ],
                [
                    0.05783,
                    0.82634,
                    -2.65571
                ]
            ],
            [
                [
                    -2.68014,
                    -0.23692,
                    0.44294
                ],
                [
                    -0.06245,
                    -2.22214,
                    0.00668
                ],
                [
                    0.33586,
                    -0.05262,
                    -1.6133
                ]
            ],
            [
                [
                    -1.71531,
                    -0.45375,
                    -0.53269
                ],
                [
                    -0.56743,
                    -3.1321,
                    1.38653
                ],
                [
                    -0.36042,
                    1.23043,
                    -2.8414
                ]
            ],
            [
                [
                    -3.22006,
                    -0.30147,
                    -0.93442
                ],
                [
                    -0.41503,
                    -1.62741,
                    -1.15449
                ],
                [
                    -0.88538,
                    -0.92735,
                    -2.8414
                ]
            ],
            [
                [
                    -2.73891,
                    0.19898,
                    0.55743
                ],
                [
                    0.18407,
                    -1.97428,
                    -0.46728
                ],
                [
                    0.68671,
                    -0.46325,
                    -2.65571
                ]
            ],
            [
                [
                    -2.33123,
                    -0.41948,
                    0.68343
                ],
                [
                    -0.4342,
                    -2.38194,
                    0.24914
                ],
                [
                    0.74455,
                    0.36308,
                    -2.65571
                ]
            ]
        ]
    },
    "band_gap": 3.5924000000000005,
    "is_direct": false,
    "formula": "La3BWO9"
}