{
    "mp_id": "mp-554699",
    "nelements": 3,
    "nsites": 30,
    "elements": [
        "Ge",
        "O",
        "Pb"
    ],
    "structure": {
        "@module": "pymatgen.core.structure",
        "@class": "Structure",
        "charge": null,
        "lattice": {
            "matrix": [
                [
                    7.82061273,
                    4.51523328,
                    2.41833325
                ],
                [
                    -7.82061287,
                    4.51523304,
                    2.41833325
                ],
                [
                    1.4e-07,
                    -9.03046532,
                    2.41833325
                ]
            ],
            "a": 9.34867106884787,
            "b": 9.348671070049091,
            "c": 9.348670472520585,
            "alpha": 113.55476383581036,
            "beta": 113.5547638229573,
            "gamma": 113.55476052901767,
            "volume": 512.3754719889862
        },
        "sites": [
            {
                "species": [
                    {
                        "element": "Ge",
                        "occu": 1
                    }
                ],
                "abc": [
                    0.25305056,
                    0.51884657,
                    0.65204197
                ],
                "xyz": [
                    -2.078687640741851,
                    -2.4029469116801696,
                    3.443559271505075
                ],
                "label": "Ge",
                "properties": {}
            },
            {
                "species": [
                    {
                        "element": "Ge",
                        "occu": 1
                    }
                ],
                "abc": [
                    0.51884657,
                    0.65204197,
                    0.25305056
                ],
                "xyz": [
                    -1.0416696966762389,
                    3.0016704402019605,
                    3.443559271505075
                ],
                "label": "Ge",
                "properties": {}
            },
            {
                "species": [
                    {
                        "element": "Ge",
                        "occu": 1
                    }
                ],
                "abc": [
                    0.74694944,
                    0.48115343,
                    0.34795803
                ],
                "xyz": [
                    2.0786876407418515,
                    2.4029479116801715,
                    3.8114404784949243
                ],
                "label": "Ge",
                "properties": {}
            },
            {
                "species": [
                    {
                        "element": "Ge",
                        "occu": 1
                    }
                ],
                "abc": [
                    0.34795803,
                    0.74694944,
                    0.48115343
                ],
                "xyz": [
                    -3.12035733741809,
                    0.5987231045826888,
                    3.8114404784949247
                ],
                "label": "Ge",
                "properties": {}
            },
            {
                "species": [
                    {
                        "element": "Ge",
                        "occu": 1
                    }
                ],
                "abc": [
                    0.48115343,
                    0.34795803,
                    0.74694944
                ],
                "xyz": [
                    1.0416696966762398,
                    -3.0016694402019586,
                    3.8114404784949247
                ],
                "label": "Ge",
                "properties": {}
            },
            {
                "species": [
                    {
                        "element": "Ge",
                        "occu": 1
                    }
                ],
                "abc": [
                    0.65204197,
                    0.25305056,
                    0.51884657
                ],
                "xyz": [
                    3.1203573374180906,
                    -0.5987221045826878,
                    3.443559271505075
                ],
                "label": "Ge",
                "properties": {}
            },
            {
                "species": [
                    {
                        "element": "Pb",
                        "occu": 1
                    }
                ],
                "abc": [
                    0.29634338,
                    0.99612501,
                    0.83674604
                ],
                "xyz": [
                    -5.472721146111206,
                    -1.720410047061315,
                    5.149150052448797
                ],
                "label": "Pb",
                "properties": {}
            },
            {
                "species": [
                    {
                        "element": "Pb",
                        "occu": 1
                    }
                ],
                "abc": [
                    0.16325396,
                    0.70365662,
                    0.00387499
                ],
                "xyz": [
                    -4.22628002009129,
                    3.8793103699121665,
                    2.105849697551202
                ],
                "label": "Pb",
                "properties": {}
            },
            {
                "species": [
                    {
                        "element": "Pb",
                        "occu": 1
                    }
                ],
                "abc": [
                    0.00387499,
                    0.16325396,
                    0.70365662
                ],
                "xyz": [
                    -1.2464411260199157,
                    -5.599720546187911,
                    2.105849697551202
                ],
                "label": "Pb",
                "properties": {}
            },
            {
                "species": [
                    {
                        "element": "Pb",
                        "occu": 1
                    }
                ],
                "abc": [
                    0.83674604,
                    0.29634338,
                    0.99612501
                ],
                "xyz": [
                    4.22628002009129,
                    -3.879309369912165,
                    5.149150052448797
                ],
                "label": "Pb",
                "properties": {}
            },
            {
                "species": [
                    {
                        "element": "Pb",
                        "occu": 1
                    }
                ],
                "abc": [
                    0.70365662,
                    0.00387499,
                    0.16325396
                ],
                "xyz": [
                    5.472721146111205,
                    1.7204110470613165,
                    2.105849697551202
                ],
                "label": "Pb",
                "properties": {}
            },
            {
                "species": [
                    {
                        "element": "Pb",
                        "occu": 1
                    }
                ],
                "abc": [
                    0.99612501,
                    0.83674604,
                    0.29634338
                ],
                "xyz": [
                    1.246441126019915,
                    5.599721546187913,
                    5.149150052448797
                ],
                "label": "Pb",
                "properties": {}
            },
            {
                "species": [
                    {
                        "element": "O",
                        "occu": 1
                    }
                ],
                "abc": [
                    0.21251231,
                    0.51540939,
                    0.44473365
                ],
                "xyz": [
                    -2.3688407696224316,
                    -0.7294156415860953,
                    2.8358714236953873
                ],
                "label": "O",
                "properties": {}
            },
            {
                "species": [
                    {
                        "element": "O",
                        "occu": 1
                    }
                ],
                "abc": [
                    0.31487511,
                    0.74084751,
                    0.84798604
                ],
                "xyz": [
                    -3.331365159069258,
                    -2.8908747955947405,
                    4.603801950790945
                ],
                "label": "O",
                "properties": {}
            },
            {
                "species": [
                    {
                        "element": "O",
                        "occu": 1
                    }
                ],
                "abc": [
                    0.53047915,
                    0.0230431,
                    0.27723784
                ],
                "xyz": [
                    3.9684608678781803,
                    -0.0043046206215726635,
                    2.0090547484199925
                ],
                "label": "O",
                "properties": {}
            },
            {
                "species": [
                    {
                        "element": "O",
                        "occu": 1
                    }
                ],
                "abc": [
                    0.25915249,
                    0.15201396,
                    0.68512489
                ],
                "xyz": [
                    0.8378890262270173,
                    -4.330484156837709,
                    2.651197799209055
                ],
                "label": "O",
                "properties": {}
            },
            {
                "species": [
                    {
                        "element": "O",
                        "occu": 1
                    }
                ],
                "abc": [
                    0.9769569,
                    0.72276216,
                    0.46952085
                ],
                "xyz": [
                    1.9879585840892564,
                    3.434636139957478,
                    5.245945001580007
                ],
                "label": "O",
                "properties": {}
            },
            {
                "species": [
                    {
                        "element": "O",
                        "occu": 1
                    }
                ],
                "abc": [
                    0.44473365,
                    0.21251231,
                    0.51540939
                ],
                "xyz": [
                    1.8161132101872492,
                    -1.6867678412627591,
                    2.8358714236953873
                ],
                "label": "O",
                "properties": {}
            },
            {
                "species": [
                    {
                        "element": "O",
                        "occu": 1
                    }
                ],
                "abc": [
                    0.84798604,
                    0.31487511,
                    0.74084751
                ],
                "xyz": [
                    4.169254185296275,
                    -1.439608457534307,
                    4.603801950790945
                ],
                "label": "O",
                "properties": {}
            },
            {
                "species": [
                    {
                        "element": "O",
                        "occu": 1
                    }
                ],
                "abc": [
                    0.0230431,
                    0.27723784,
                    0.53047915
                ],
                "xyz": [
                    -1.987958584089257,
                    -3.434635139957476,
                    2.0090547484199925
                ],
                "label": "O",
                "properties": {}
            },
            {
                "species": [
                    {
                        "element": "O",
                        "occu": 1
                    }
                ],
                "abc": [
                    0.68512489,
                    0.25915249,
                    0.15201396
                ],
                "xyz": [
                    3.3313651590692577,
                    2.8908757955947424,
                    2.6511977992090547
                ],
                "label": "O",
                "properties": {}
            },
            {
                "species": [
                    {
                        "element": "O",
                        "occu": 1
                    }
                ],
                "abc": [
                    0.74084751,
                    0.84798604,
                    0.31487511
                ],
                "xyz": [
                    -0.8378890262270167,
                    4.3304851568377085,
                    4.603801950790945
                ],
                "label": "O",
                "properties": {}
            },
            {
                "species": [
                    {
                        "element": "O",
                        "occu": 1
                    }
                ],
                "abc": [
                    0.51540939,
                    0.44473365,
                    0.21251231
                ],
                "xyz": [
                    0.5527275594351823,
                    2.4161846555042064,
                    2.8358714236953873
                ],
                "label": "O",
                "properties": {}
            },
            {
                "species": [
                    {
                        "element": "O",
                        "occu": 1
                    }
                ],
                "abc": [
                    0.48459061,
                    0.55526635,
                    0.78748769
                ],
                "xyz": [
                    -0.5527275594351827,
                    -2.416183655504205,
                    4.419128326304612
                ],
                "label": "O",
                "properties": {}
            },
            {
                "species": [
                    {
                        "element": "O",
                        "occu": 1
                    }
                ],
                "abc": [
                    0.72276216,
                    0.46952085,
                    0.9769569
                ],
                "xyz": [
                    1.9805022837889235,
                    -3.438939591339139,
                    5.245945001580007
                ],
                "label": "O",
                "properties": {}
            },
            {
                "species": [
                    {
                        "element": "O",
                        "occu": 1
                    }
                ],
                "abc": [
                    0.55526635,
                    0.78748769,
                    0.48459061
                ],
                "xyz": [
                    -1.8161132101872484,
                    1.6867688412627606,
                    4.419128326304612
                ],
                "label": "O",
                "properties": {}
            },
            {
                "species": [
                    {
                        "element": "O",
                        "occu": 1
                    }
                ],
                "abc": [
                    0.15201396,
                    0.68512489,
                    0.25915249
                ],
                "xyz": [
                    -4.169254185296275,
                    1.4396094575343077,
                    2.6511977992090547
                ],
                "label": "O",
                "properties": {}
            },
            {
                "species": [
                    {
                        "element": "O",
                        "occu": 1
                    }
                ],
                "abc": [
                    0.78748769,
                    0.48459061,
                    0.55526635
                ],
                "xyz": [
                    2.368840769622432,
                    0.7294166415860959,
                    4.419128326304612
                ],
                "label": "O",
                "properties": {}
            },
            {
                "species": [
                    {
                        "element": "O",
                        "occu": 1
                    }
                ],
                "abc": [
                    0.46952085,
                    0.9769569,
                    0.72276216
                ],
                "xyz": [
                    -3.96846086787818,
                    0.004305620621573247,
                    5.245945001580007
                ],
                "label": "O",
                "properties": {}
            },
            {
                "species": [
                    {
                        "element": "O",
                        "occu": 1
                    }
                ],
                "abc": [
                    0.27723784,
                    0.53047915,
                    0.0230431
                ],
                "xyz": [
                    -1.980502283788923,
                    3.438940591339139,
                    2.0090547484199925
                ],
                "label": "O",
                "properties": {}
            }
        ]
    },
    "spacegroup": {
        "source": "spglib",
        "symbol": "R-3",
        "number": 148,
        "point_group": "-3",
        "crystal_system": "trigonal",
        "hall": "-R 3"
    },
    "dielectric": {
        "epsilon_ionic": [
            [
                8.31788633,
                4.9e-07,
                -7.6e-07
            ],
            [
                4.9e-07,
                8.31788471,
                2.85e-06
            ],
            [
                -7.6e-07,
                2.85e-06,
                9.18363523
            ]
        ],
        "epsilon_ionic_avg": 8.606468756666667,
        "epsilon_ionic_eig": [
            9.18363523001005,
            8.3178864666784,
            8.317884573311549
        ],
        "epsilon_electronic": [
            [
                4.02140591,
                -5.2e-07,
                0.0
            ],
            [
                5.2e-07,
                4.02140588,
                0.0
            ],
            [
                0.0,
                0.0,
                4.23497063
            ]
        ],
        "epsilon_electronic_avg": 4.09259414,
        "epsilon_electronic_eig": [
            4.021405895,
            4.021405895,
            4.23497063
        ]
    },
    "phonon": {
        "lowest_freq": -0.027658763914270412,
        "frequency": [
            -0.027658763914270412,
            -0.02549399308431942,
            -0.02549399298845365,
            1.092612718227658,
            1.5391621928009687,
            1.5391621928009687,
            1.7273327985182672,
            1.7273327985182672,
            1.8080964401213409,
            1.9124515779806437,
            2.016980791190476,
            2.016980791190476,
            2.424985318412551,
            2.4249853234517595,
            2.52475720425463,
            2.5623863780257907,
            2.7094795606913027,
            2.7094795606913027,
            3.3155818252603657,
            3.315581828945995,
            3.4040565283396367,
            3.4315870323114197,
            3.666959247357491,
            3.7258799427376226,
            3.725879955856678,
            3.9143896901125843,
            3.9143896901125843,
            3.951762902896085,
            4.26141096027091,
            4.261410963138506,
            4.428896930491495,
            5.029917801595489,
            5.063911953867467,
            5.063911953867467,
            5.33231547039529,
            5.33231547039529,
            5.819071972047057,
            5.819071993046981,
            6.084138156099107,
            6.37475323898196,
            6.37475323898196,
            6.544913651079166,
            7.753985979450294,
            7.753985979450294,
            7.981861781648586,
            7.981861812268025,
            8.394264234331935,
            8.441340758456253,
            8.616151841339752,
            8.664676716504921,
            8.734226674151257,
            8.734226674151257,
            9.315942784761123,
            9.31594279787843,
            10.000939921682125,
            10.000939946119841,
            10.237971280110223,
            10.399877840203738,
            10.547993014863003,
            10.547993026448152,
            11.336898666659438,
            12.159957062965724,
            12.168267745932125,
            12.168267766017165,
            12.613620531185104,
            12.613620550560995,
            14.738941825946682,
            15.13064445364344,
            15.13064445364344,
            15.859265684571957,
            15.859265684571957,
            16.255138684189205,
            20.630173033481956,
            20.931197324258225,
            20.931197324258225,
            21.24221953893877,
            21.34204956648956,
            21.34204962374745,
            21.928246528397406,
            22.032097868726197,
            22.03209792419076,
            22.30376612884004,
            22.30376612884004,
            22.534677436199765,
            23.39942477970917,
            24.029444848466383,
            24.029444899320687,
            24.692671938489287,
            24.69267198797768,
            24.785819383110574
        ]
    },
    "born_effective_charge": {
        "avg_abs_trace": 2.6005076666666667,
        "tensors": [
            [
                [
                    3.50341,
                    -0.50947,
                    0.10459
                ],
                [
                    -0.40091,
                    3.527,
                    -0.14788
                ],
                [
                    -0.63551,
                    0.31015,
                    3.45534
                ]
            ],
            [
                [
                    3.91532,
                    0.16311,
                    -0.18034
                ],
                [
                    0.27167,
                    3.11511,
                    -0.01662
                ],
                [
                    0.58635,
                    0.3953,
                    3.45534
                ]
            ],
            [
                [
                    3.50344,
                    -0.50945,
                    0.10454
                ],
                [
                    -0.40093,
                    3.52699,
                    -0.14782
                ],
                [
                    -0.63552,
                    0.31015,
                    3.45533
                ]
            ],
            [
                [
                    3.12691,
                    0.18354,
                    0.07575
                ],
                [
                    0.29208,
                    3.90351,
                    0.16446
                ],
                [
                    0.04916,
                    -0.70545,
                    3.45533
                ]
            ],
            [
                [
                    3.91529,
                    0.16313,
                    -0.18031
                ],
                [
                    0.27165,
                    3.11511,
                    -0.01663
                ],
                [
                    0.58635,
                    0.3953,
                    3.45533
                ]
            ],
            [
                [
                    3.12688,
                    0.18352,
                    0.07578
                ],
                [
                    0.29206,
                    3.90353,
                    0.1645
                ],
                [
                    0.04916,
                    -0.70545,
                    3.45534
                ]
            ],
            [
                [
                    3.06156,
                    -0.77617,
                    0.22733
                ],
                [
                    -0.87498,
                    2.62758,
                    -0.13954
                ],
                [
                    0.32386,
                    -0.25158,
                    3.32888
                ]
            ],
            [
                [
                    2.02117,
                    0.27426,
                    0.0072
                ],
                [
                    0.17543,
                    3.66803,
                    0.26668
                ],
                [
                    0.05595,
                    0.40626,
                    3.32889
                ]
            ],
            [
                [
                    3.45103,
                    0.65009,
                    -0.23455
                ],
                [
                    0.55128,
                    2.23815,
                    -0.12711
                ],
                [
                    -0.37981,
                    -0.15468,
                    3.32889
                ]
            ],
            [
                [
                    2.02111,
                    0.27426,
                    0.00717
                ],
                [
                    0.17546,
                    3.66803,
                    0.26663
                ],
                [
                    0.05595,
                    0.40626,
                    3.32888
                ]
            ],
            [
                [
                    3.06159,
                    -0.77612,
                    0.22734
                ],
                [
                    -0.87494,
                    2.62761,
                    -0.13956
                ],
                [
                    0.32386,
                    -0.25158,
                    3.32889
                ]
            ],
            [
                [
                    3.45105,
                    0.65012,
                    -0.2345
                ],
                [
                    0.5513,
                    2.23811,
                    -0.1271
                ],
                [
                    -0.37981,
                    -0.15468,
                    3.32888
                ]
            ],
            [
                [
                    -1.29588,
                    0.83023,
                    -0.00113
                ],
                [
                    0.79181,
                    -3.27113,
                    -0.03647
                ],
                [
                    0.09678,
                    0.0651,
                    -1.56952
                ]
            ],
            [
                [
                    -2.34948,
                    -0.08531,
                    0.37472
                ],
                [
                    -0.0152,
                    -2.261,
                    0.05258
                ],
                [
                    0.39586,
                    0.06967,
                    -2.38244
                ]
            ],
            [
                [
                    -1.63265,
                    -0.57178,
                    0.39066
                ],
                [
                    -0.61327,
                    -1.90944,
                    0.09856
                ],
                [
                    0.22084,
                    0.11245,
                    -2.83228
                ]
            ],
            [
                [
                    -2.23962,
                    -0.04824,
                    -0.14181
                ],
                [
                    0.02185,
                    -2.37095,
                    -0.35082
                ],
                [
                    -0.13761,
                    -0.37764,
                    -2.38243
                ]
            ],
            [
                [
                    -1.32711,
                    0.43681,
                    -0.11009
                ],
                [
                    0.39537,
                    -2.21501,
                    -0.38762
                ],
                [
                    -0.01303,
                    -0.24751,
                    -2.83227
                ]
            ],
            [
                [
                    -2.07495,
                    -1.24161,
                    0.03209
                ],
                [
                    -1.27999,
                    -2.49205,
                    0.01727
                ],
                [
                    -0.10477,
                    0.05126,
                    -1.56952
                ]
            ],
            [
                [
                    -2.32666,
                    0.02841,
                    -0.2329
                ],
                [
                    0.09851,
                    -2.28384,
                    0.29823
                ],
                [
                    -0.25827,
                    0.30799,
                    -2.38244
                ]
            ],
            [
                [
                    -1.32708,
                    0.43683,
                    -0.10997
                ],
                [
                    0.39538,
                    -2.21499,
                    -0.38762
                ],
                [
                    -0.01304,
                    -0.24748,
                    -2.83228
                ]
            ],
            [
                [
                    -2.34955,
                    -0.08531,
                    0.37472
                ],
                [
                    -0.01523,
                    -2.26102,
                    0.0526
                ],
                [
                    0.39585,
                    0.06965,
                    -2.38243
                ]
            ],
            [
                [
                    -2.23959,
                    -0.04824,
                    -0.14182
                ],
                [
                    0.02185,
                    -2.37089,
                    -0.3508
                ],
                [
                    -0.13759,
                    -0.37766,
                    -2.38244
                ]
            ],
            [
                [
                    -3.47968,
                    0.46901,
                    -0.03098
                ],
                [
                    0.43061,
                    -1.08732,
                    0.01917
                ],
                [
                    0.00799,
                    -0.11636,
                    -1.56952
                ]
            ],
            [
                [
                    -3.47961,
                    0.46896,
                    -0.03099
                ],
                [
                    0.43061,
                    -1.08733,
                    0.0192
                ],
                [
                    0.00799,
                    -0.11642,
                    -1.5695
                ]
            ],
            [
                [
                    -2.35338,
                    0.19713,
                    -0.28064
                ],
                [
                    0.15573,
                    -1.18873,
                    0.28914
                ],
                [
                    -0.20783,
                    0.13504,
                    -2.83227
                ]
            ],
            [
                [
                    -2.07494,
                    -1.24162,
                    0.03212
                ],
                [
                    -1.27998,
                    -2.49201,
                    0.01721
                ],
                [
                    -0.10482,
                    0.05129,
                    -1.5695
                ]
            ],
            [
                [
                    -2.32666,
                    0.02842,
                    -0.23291
                ],
                [
                    0.0985,
                    -2.28388,
                    0.29822
                ],
                [
                    -0.25824,
                    0.30799,
                    -2.38243
                ]
            ],
            [
                [
                    -1.29586,
                    0.83015,
                    -0.00112
                ],
                [
                    0.79183,
                    -3.27107,
                    -0.03639
                ],
                [
                    0.09683,
                    0.06513,
                    -1.5695
                ]
            ],
            [
                [
                    -1.63269,
                    -0.57182,
                    0.39076
                ],
                [
                    -0.61322,
                    -1.9094,
                    0.09848
                ],
                [
                    0.22086,
                    0.11247,
                    -2.83227
                ]
            ],
            [
                [
                    -2.35337,
                    0.19717,
                    -0.28071
                ],
                [
                    0.15569,
                    -1.18871,
                    0.28907
                ],
                [
                    -0.20781,
                    0.13503,
                    -2.83228
                ]
            ]
        ]
    },
    "band_gap": 2.5367,
    "is_direct": false,
    "formula": "GePbO3"
}