{
    "mp_id": "mp-5836",
    "nelements": 3,
    "nsites": 12,
    "elements": [
        "O",
        "Si",
        "Th"
    ],
    "structure": {
        "@module": "pymatgen.core.structure",
        "@class": "Structure",
        "charge": null,
        "lattice": {
            "matrix": [
                [
                    -3.66394126,
                    3.66394126,
                    3.2276579
                ],
                [
                    3.66394126,
                    -3.66394126,
                    3.2276579
                ],
                [
                    3.66394126,
                    3.66394126,
                    -3.2276579
                ]
            ],
            "a": 6.104646315135152,
            "b": 6.104646315135152,
            "c": 6.104646315135152,
            "alpha": 106.23313726361532,
            "beta": 106.23313726361532,
            "gamma": 116.1617720931947,
            "volume": 173.31832922983494
        },
        "sites": [
            {
                "species": [
                    {
                        "element": "Th",
                        "occu": 1
                    }
                ],
                "abc": [
                    0.5,
                    0.5,
                    0.0
                ],
                "xyz": [
                    0.0,
                    0.0,
                    3.2276579
                ],
                "label": "Th",
                "properties": {}
            },
            {
                "species": [
                    {
                        "element": "Th",
                        "occu": 1
                    }
                ],
                "abc": [
                    0.25,
                    0.75,
                    0.5
                ],
                "xyz": [
                    3.6639412600000005,
                    -2.220446049250313e-16,
                    1.61382895
                ],
                "label": "Th",
                "properties": {}
            },
            {
                "species": [
                    {
                        "element": "Si",
                        "occu": 1
                    }
                ],
                "abc": [
                    0.0,
                    0.0,
                    0.0
                ],
                "xyz": [
                    0.0,
                    0.0,
                    0.0
                ],
                "label": "Si",
                "properties": {}
            },
            {
                "species": [
                    {
                        "element": "Si",
                        "occu": 1
                    }
                ],
                "abc": [
                    0.75,
                    0.25,
                    0.5
                ],
                "xyz": [
                    -2.220446049250313e-16,
                    3.6639412600000005,
                    1.61382895
                ],
                "label": "Si",
                "properties": {}
            },
            {
                "species": [
                    {
                        "element": "O",
                        "occu": 1
                    }
                ],
                "abc": [
                    0.16231816,
                    0.33598429,
                    0.17366613
                ],
                "xyz": [
                    1.2726049983430476,
                    -1.1102230246251565e-16,
                    1.047814982874928
                ],
                "label": "O",
                "properties": {}
            },
            {
                "species": [
                    {
                        "element": "O",
                        "occu": 1
                    }
                ],
                "abc": [
                    0.73865203,
                    0.41231816,
                    0.32633387
                ],
                "xyz": [
                    0.0,
                    2.3913362616569525,
                    2.661643932874928
                ],
                "label": "O",
                "properties": {}
            },
            {
                "species": [
                    {
                        "element": "O",
                        "occu": 1
                    }
                ],
                "abc": [
                    0.08598429,
                    0.41231816,
                    0.67366613
                ],
                "xyz": [
                    3.6639412599999996,
                    1.2726049983430476,
                    -0.5660139671250719
                ],
                "label": "O",
                "properties": {}
            },
            {
                "species": [
                    {
                        "element": "O",
                        "occu": 1
                    }
                ],
                "abc": [
                    0.16231816,
                    0.98865203,
                    0.82633387
                ],
                "xyz": [
                    6.0552775216569525,
                    -4.440892098500626e-16,
                    1.047814982874928
                ],
                "label": "O",
                "properties": {}
            },
            {
                "species": [
                    {
                        "element": "O",
                        "occu": 1
                    }
                ],
                "abc": [
                    0.66401571,
                    0.83768184,
                    0.82633387
                ],
                "xyz": [
                    3.66394126,
                    2.3913362616569525,
                    2.1798429171250717
                ],
                "label": "O",
                "properties": {}
            },
            {
                "species": [
                    {
                        "element": "O",
                        "occu": 1
                    }
                ],
                "abc": [
                    0.58768184,
                    0.26134797,
                    0.67366613
                ],
                "xyz": [
                    1.2726049983430476,
                    3.6639412599999996,
                    0.5660139671250719
                ],
                "label": "O",
                "properties": {}
            },
            {
                "species": [
                    {
                        "element": "O",
                        "occu": 1
                    }
                ],
                "abc": [
                    0.58768184,
                    0.91401571,
                    0.32633387
                ],
                "xyz": [
                    2.391336261656953,
                    -2.220446049250313e-16,
                    3.793671867125072
                ],
                "label": "O",
                "properties": {}
            },
            {
                "species": [
                    {
                        "element": "O",
                        "occu": 1
                    }
                ],
                "abc": [
                    0.01134797,
                    0.83768184,
                    0.17366613
                ],
                "xyz": [
                    3.66394126,
                    -2.3913362616569525,
                    2.1798429171250717
                ],
                "label": "O",
                "properties": {}
            }
        ]
    },
    "spacegroup": {
        "source": "spglib",
        "symbol": "I4_1/amd",
        "number": 141,
        "point_group": "4/mmm",
        "crystal_system": "tetragonal",
        "hall": "I 4bw 2bw -1bw"
    },
    "dielectric": {
        "epsilon_ionic": [
            [
                6.88527178,
                0.0,
                -0.0
            ],
            [
                0.0,
                6.88526457,
                -0.0
            ],
            [
                -0.0,
                -0.0,
                6.10100395
            ]
        ],
        "epsilon_ionic_avg": 6.6238467666666665,
        "epsilon_ionic_eig": [
            6.88527178,
            6.88526457,
            6.10100395
        ],
        "epsilon_electronic": [
            [
                3.62001942,
                0.0,
                0.0
            ],
            [
                0.0,
                3.62001942,
                -0.0
            ],
            [
                0.0,
                0.0,
                3.90994443
            ]
        ],
        "epsilon_electronic_avg": 3.71666109,
        "epsilon_electronic_eig": [
            3.62001942,
            3.62001942,
            3.90994443
        ]
    },
    "phonon": {
        "lowest_freq": -0.025821543512072498,
        "frequency": [
            -0.025821543512072498,
            -0.025821543512072498,
            -0.012783622488796404,
            2.9814953614387893,
            3.3647913730648744,
            3.3647913730648744,
            3.671745419936993,
            5.491110792875346,
            5.512992971400928,
            5.512992971400928,
            5.858370263463502,
            5.858370263463502,
            7.295606094133961,
            8.974358730457084,
            9.053839563514133,
            9.053839563514133,
            9.289498292844973,
            9.694604104937985,
            9.694604104937985,
            9.977133371211506,
            12.803203822320445,
            12.803203822320445,
            12.998053556332465,
            14.604886160464847,
            14.604886160464847,
            15.555248080790648,
            16.279372483796653,
            16.926599210330057,
            24.586317910487573,
            24.586317910487573,
            25.229864140635176,
            25.229864140635176,
            25.654304408355905,
            25.895333463733596,
            26.76562395623657,
            27.109084280972535
        ]
    },
    "born_effective_charge": {
        "avg_abs_trace": 2.9521949999999997,
        "tensors": [
            [
                [
                    5.38133,
                    -0.0,
                    -0.0
                ],
                [
                    0.0,
                    5.38133,
                    1e-05
                ],
                [
                    0.0,
                    0.0,
                    5.33261
                ]
            ],
            [
                [
                    5.38133,
                    -0.0,
                    0.0
                ],
                [
                    0.0,
                    5.38133,
                    -1e-05
                ],
                [
                    0.0,
                    0.0,
                    5.33261
                ]
            ],
            [
                [
                    3.07385,
                    -0.0,
                    2e-05
                ],
                [
                    0.0,
                    3.07385,
                    -1e-05
                ],
                [
                    0.0,
                    0.0,
                    4.32679
                ]
            ],
            [
                [
                    3.07385,
                    -0.0,
                    -2e-05
                ],
                [
                    0.0,
                    3.07385,
                    1e-05
                ],
                [
                    0.0,
                    0.0,
                    4.32679
                ]
            ],
            [
                [
                    -3.1519,
                    0.0,
                    -0.33526
                ],
                [
                    1e-05,
                    -1.07569,
                    -3e-05
                ],
                [
                    -0.32359,
                    0.0,
                    -2.41481
                ]
            ],
            [
                [
                    -1.07569,
                    -5e-05,
                    -1e-05
                ],
                [
                    0.0,
                    -3.15193,
                    0.33522
                ],
                [
                    -0.0,
                    0.32359,
                    -2.41481
                ]
            ],
            [
                [
                    -1.07569,
                    5e-05,
                    -1e-05
                ],
                [
                    0.0,
                    -3.15188,
                    -0.3353
                ],
                [
                    -0.0,
                    -0.32359,
                    -2.41481
                ]
            ],
            [
                [
                    -3.1519,
                    -0.0,
                    0.33527
                ],
                [
                    -1e-05,
                    -1.07569,
                    -3e-05
                ],
                [
                    0.32359,
                    0.0,
                    -2.41481
                ]
            ],
            [
                [
                    -1.07569,
                    -5e-05,
                    1e-05
                ],
                [
                    0.0,
                    -3.15193,
                    -0.33522
                ],
                [
                    0.0,
                    -0.32352,
                    -2.41488
                ]
            ],
            [
                [
                    -3.1519,
                    -0.0,
                    0.33526
                ],
                [
                    1e-05,
                    -1.07569,
                    3e-05
                ],
                [
                    0.32352,
                    0.0,
                    -2.41488
                ]
            ],
            [
                [
                    -3.1519,
                    -0.0,
                    -0.33527
                ],
                [
                    -1e-05,
                    -1.07569,
                    3e-05
                ],
                [
                    -0.32352,
                    0.0,
                    -2.41488
                ]
            ],
            [
                [
                    -1.07569,
                    5e-05,
                    1e-05
                ],
                [
                    0.0,
                    -3.15188,
                    0.3353
                ],
                [
                    0.0,
                    0.32352,
                    -2.41488
                ]
            ]
        ]
    },
    "band_gap": 4.8837,
    "is_direct": false,
    "formula": "ThSiO4"
}