{
    "mp_id": "mp-558781",
    "nelements": 3,
    "nsites": 12,
    "elements": [
        "O",
        "Sc",
        "Ta"
    ],
    "structure": {
        "@module": "pymatgen.core.structure",
        "@class": "Structure",
        "charge": null,
        "lattice": {
            "matrix": [
                [
                    4.77240868,
                    0.0,
                    0.00029543
                ],
                [
                    0.0,
                    5.68097294,
                    0.0
                ],
                [
                    -0.14331737,
                    0.0,
                    5.13982727
                ]
            ],
            "a": 4.772408689144112,
            "b": 5.68097294,
            "c": 5.141824990602011,
            "alpha": 90.0,
            "beta": 91.59365729424776,
            "gamma": 90.0,
            "volume": 139.35084977935085
        },
        "sites": [
            {
                "species": [
                    {
                        "element": "Sc",
                        "occu": 1
                    }
                ],
                "abc": [
                    0.5,
                    0.6681055,
                    0.25
                ],
                "xyz": [
                    2.3503749975,
                    3.7954892665651703,
                    1.2851045325
                ],
                "label": "Sc",
                "properties": {}
            },
            {
                "species": [
                    {
                        "element": "Sc",
                        "occu": 1
                    }
                ],
                "abc": [
                    0.5,
                    0.3318945,
                    0.75
                ],
                "xyz": [
                    2.2787163125,
                    1.88548367343483,
                    3.8550181675
                ],
                "label": "Sc",
                "properties": {}
            },
            {
                "species": [
                    {
                        "element": "Ta",
                        "occu": 1
                    }
                ],
                "abc": [
                    0.0,
                    0.17074917,
                    0.25
                ],
                "xyz": [
                    -0.0358293425,
                    0.9700214142974599,
                    1.2849568175
                ],
                "label": "Ta",
                "properties": {}
            },
            {
                "species": [
                    {
                        "element": "Ta",
                        "occu": 1
                    }
                ],
                "abc": [
                    0.0,
                    0.82925083,
                    0.75
                ],
                "xyz": [
                    -0.1074880275,
                    4.710951525702541,
                    3.8548704524999997
                ],
                "label": "Ta",
                "properties": {}
            },
            {
                "species": [
                    {
                        "element": "O",
                        "occu": 1
                    }
                ],
                "abc": [
                    0.21947421,
                    0.89129943,
                    0.43102463
                ],
                "xyz": [
                    0.9856473084633196,
                    5.063447943267424,
                    2.2154569865815206
                ],
                "label": "O",
                "properties": {}
            },
            {
                "species": [
                    {
                        "element": "O",
                        "occu": 1
                    }
                ],
                "abc": [
                    0.26601453,
                    0.38482906,
                    0.40705634
                ],
                "xyz": [
                    1.2111918078874948,
                    2.1862034763856366,
                    2.0922778654309897
                ],
                "label": "O",
                "properties": {}
            },
            {
                "species": [
                    {
                        "element": "O",
                        "occu": 1
                    }
                ],
                "abc": [
                    0.78052579,
                    0.89129943,
                    0.06897537
                ],
                "xyz": [
                    3.71510268653668,
                    5.063447943267424,
                    0.35475207841847956
                ],
                "label": "O",
                "properties": {}
            },
            {
                "species": [
                    {
                        "element": "O",
                        "occu": 1
                    }
                ],
                "abc": [
                    0.73398547,
                    0.61517094,
                    0.59294366
                ],
                "xyz": [
                    3.4178995021125056,
                    3.494769463614364,
                    3.04784483456901
                ],
                "label": "O",
                "properties": {}
            },
            {
                "species": [
                    {
                        "element": "O",
                        "occu": 1
                    }
                ],
                "abc": [
                    0.73398547,
                    0.38482906,
                    0.09294366
                ],
                "xyz": [
                    3.4895581871125056,
                    2.1862034763856366,
                    0.4779311995690102
                ],
                "label": "O",
                "properties": {}
            },
            {
                "species": [
                    {
                        "element": "O",
                        "occu": 1
                    }
                ],
                "abc": [
                    0.21947421,
                    0.10870057,
                    0.93102463
                ],
                "xyz": [
                    0.9139886234633197,
                    0.6175249967325758,
                    4.78537062158152
                ],
                "label": "O",
                "properties": {}
            },
            {
                "species": [
                    {
                        "element": "O",
                        "occu": 1
                    }
                ],
                "abc": [
                    0.26601453,
                    0.61517094,
                    0.90705634
                ],
                "xyz": [
                    1.1395331228874948,
                    3.494769463614364,
                    4.66219150043099
                ],
                "label": "O",
                "properties": {}
            },
            {
                "species": [
                    {
                        "element": "O",
                        "occu": 1
                    }
                ],
                "abc": [
                    0.78052579,
                    0.10870057,
                    0.56897537
                ],
                "xyz": [
                    3.64344400153668,
                    0.6175249967325758,
                    2.924665713418479
                ],
                "label": "O",
                "properties": {}
            }
        ]
    },
    "spacegroup": {
        "source": "spglib",
        "symbol": "P2/c",
        "number": 13,
        "point_group": "2/m",
        "crystal_system": "monoclinic",
        "hall": "-P 2yc"
    },
    "dielectric": {
        "epsilon_ionic": [
            [
                16.02475878,
                1e-08,
                2.65827542
            ],
            [
                1e-08,
                15.67260353,
                -1e-08
            ],
            [
                2.65827542,
                -1e-08,
                19.13405761
            ]
        ],
        "epsilon_ionic_avg": 16.943806640000005,
        "epsilon_ionic_eig": [
            20.658915138024497,
            14.499901251975512,
            15.672603530000002
        ],
        "epsilon_electronic": [
            [
                5.01357516,
                0.0,
                0.15921097
            ],
            [
                0.0,
                4.89795329,
                0.0
            ],
            [
                0.1592162,
                0.0,
                5.2290174
            ]
        ],
        "epsilon_electronic_avg": 5.046848616666667,
        "epsilon_electronic_eig": [
            4.929065155215879,
            5.313527404784121,
            4.89795329
        ]
    },
    "phonon": {
        "lowest_freq": -0.028622948293462045,
        "frequency": [
            -0.028622948293462045,
            -0.01983142885665432,
            -0.01649953290911122,
            3.7002741892949547,
            4.066762527555367,
            5.130598491374638,
            5.577014369867512,
            6.003510396195023,
            6.487770529266108,
            6.789865652024278,
            7.0851227299944215,
            7.539297832475126,
            8.197238921707006,
            8.605836423119612,
            8.961407998547148,
            9.025598900067415,
            9.472423745520667,
            10.003791030192778,
            10.999240098883728,
            11.365045778267499,
            11.365377158465371,
            12.374162908462603,
            12.75993612458587,
            13.028106314759754,
            14.255594094156292,
            14.29180674705773,
            14.375901869449134,
            15.375958921382622,
            16.145328951650814,
            16.949533240562214,
            18.179015617623108,
            18.299687314401808,
            18.708243237871706,
            18.874346165741557,
            22.045430066957902,
            23.959482716120615
        ]
    },
    "born_effective_charge": {
        "avg_abs_trace": 3.6407055555555554,
        "tensors": [
            [
                [
                    4.92326,
                    2e-05,
                    -0.1136
                ],
                [
                    0.0,
                    4.34426,
                    -0.0
                ],
                [
                    0.05022,
                    -1e-05,
                    4.57148
                ]
            ],
            [
                [
                    4.92326,
                    -2e-05,
                    -0.1136
                ],
                [
                    0.0,
                    4.3445,
                    -0.0
                ],
                [
                    0.05022,
                    1e-05,
                    4.57148
                ]
            ],
            [
                [
                    5.7708,
                    -1e-05,
                    0.55777
                ],
                [
                    0.0,
                    6.1775,
                    -0.0
                ],
                [
                    0.3911,
                    0.00013,
                    6.97877
                ]
            ],
            [
                [
                    5.7708,
                    1e-05,
                    0.55777
                ],
                [
                    0.0,
                    6.17782,
                    -0.0
                ],
                [
                    0.3911,
                    -0.00013,
                    6.97877
                ]
            ],
            [
                [
                    -2.44889,
                    0.83015,
                    0.82264
                ],
                [
                    0.82357,
                    -2.50543,
                    0.38125
                ],
                [
                    0.81366,
                    0.5611,
                    -3.17037
                ]
            ],
            [
                [
                    -2.8981,
                    -1.38813,
                    -1.04476
                ],
                [
                    -1.38823,
                    -2.75542,
                    -0.36399
                ],
                [
                    -1.03431,
                    -0.23419,
                    -2.6046
                ]
            ],
            [
                [
                    -2.44902,
                    -0.83007,
                    0.82268
                ],
                [
                    -0.82357,
                    -2.50543,
                    -0.38125
                ],
                [
                    0.81385,
                    -0.56129,
                    -3.17046
                ]
            ],
            [
                [
                    -2.89805,
                    -1.38821,
                    -1.04472
                ],
                [
                    -1.38831,
                    -2.75558,
                    -0.36412
                ],
                [
                    -1.03452,
                    -0.23419,
                    -2.60482
                ]
            ],
            [
                [
                    -2.89805,
                    1.38821,
                    -1.04472
                ],
                [
                    1.38823,
                    -2.75542,
                    0.36399
                ],
                [
                    -1.03452,
                    0.23419,
                    -2.60482
                ]
            ],
            [
                [
                    -2.44889,
                    -0.83015,
                    0.82264
                ],
                [
                    -0.82349,
                    -2.50561,
                    -0.38131
                ],
                [
                    0.81366,
                    -0.5611,
                    -3.17037
                ]
            ],
            [
                [
                    -2.8981,
                    1.38813,
                    -1.04476
                ],
                [
                    1.38831,
                    -2.75558,
                    0.36412
                ],
                [
                    -1.03431,
                    0.23419,
                    -2.6046
                ]
            ],
            [
                [
                    -2.44902,
                    0.83007,
                    0.82268
                ],
                [
                    0.82349,
                    -2.50561,
                    0.38131
                ],
                [
                    0.81385,
                    0.56129,
                    -3.17046
                ]
            ]
        ]
    },
    "band_gap": 4.0794,
    "is_direct": false,
    "formula": "ScTaO4"
}