{
    "mp_id": "mp-561166",
    "nelements": 4,
    "nsites": 24,
    "elements": [
        "Ge",
        "Na",
        "O",
        "Zr"
    ],
    "structure": {
        "@module": "pymatgen.core.structure",
        "@class": "Structure",
        "charge": null,
        "lattice": {
            "matrix": [
                [
                    5.69096837,
                    -0.00139219,
                    -0.00169708
                ],
                [
                    0.29503153,
                    6.63683305,
                    0.00199904
                ],
                [
                    0.13292847,
                    3.17536694,
                    8.65815036
                ]
            ],
            "a": 5.6909687933263156,
            "b": 6.6433877301740685,
            "c": 9.223025145696484,
            "alpha": 69.82615352075229,
            "beta": 89.19505322892762,
            "gamma": 87.46869028621458,
            "volume": 326.9857381214122
        },
        "sites": [
            {
                "species": [
                    {
                        "element": "Na",
                        "occu": 1
                    }
                ],
                "abc": [
                    0.77567852,
                    0.65949128,
                    0.50564522
                ],
                "xyz": [
                    4.676147289425885,
                    5.981462746369072,
                    4.377954304520929
                ],
                "label": "Na",
                "properties": {}
            },
            {
                "species": [
                    {
                        "element": "Na",
                        "occu": 1
                    }
                ],
                "abc": [
                    0.71996292,
                    0.91220821,
                    0.12061514
                ],
                "xyz": [
                    4.382449575186738,
                    6.436168599451217,
                    1.0449057238402952
                ],
                "label": "Na",
                "properties": {}
            },
            {
                "species": [
                    {
                        "element": "Na",
                        "occu": 1
                    }
                ],
                "abc": [
                    0.22432148,
                    0.34050872,
                    0.49435478
                ],
                "xyz": [
                    1.442781080574116,
                    3.8293450536309277,
                    4.280498015479071
                ],
                "label": "Na",
                "properties": {}
            },
            {
                "species": [
                    {
                        "element": "Na",
                        "occu": 1
                    }
                ],
                "abc": [
                    0.28003708,
                    0.08779179,
                    0.87938486
                ],
                "xyz": [
                    1.7364787948132627,
                    3.3746392005487826,
                    7.613546596159706
                ],
                "label": "Na",
                "properties": {}
            },
            {
                "species": [
                    {
                        "element": "Zr",
                        "occu": 1
                    }
                ],
                "abc": [
                    0.76573217,
                    0.30280443,
                    0.27825446
                ],
                "xyz": [
                    4.484082353273617,
                    2.892156417232212,
                    2.4084747624372893
                ],
                "label": "Zr",
                "properties": {}
            },
            {
                "species": [
                    {
                        "element": "Zr",
                        "occu": 1
                    }
                ],
                "abc": [
                    0.23426783,
                    0.69719557,
                    0.72174554
                ],
                "xyz": [
                    1.634846016726383,
                    6.918651382767788,
                    6.249977557562711
                ],
                "label": "Zr",
                "properties": {}
            },
            {
                "species": [
                    {
                        "element": "Ge",
                        "occu": 1
                    }
                ],
                "abc": [
                    0.30138912,
                    0.94743469,
                    0.33562568
                ],
                "xyz": [
                    2.03933326328302,
                    7.3532809608765515,
                    2.907280080512173
                ],
                "label": "Ge",
                "properties": {}
            },
            {
                "species": [
                    {
                        "element": "Ge",
                        "occu": 1
                    }
                ],
                "abc": [
                    0.2242516,
                    0.64625808,
                    0.14412564
                ],
                "xyz": [
                    1.4860336734521253,
                    4.746446575800881,
                    1.2487727846981458
                ],
                "label": "Ge",
                "properties": {}
            },
            {
                "species": [
                    {
                        "element": "Ge",
                        "occu": 1
                    }
                ],
                "abc": [
                    0.69861088,
                    0.05256531,
                    0.66437432
                ],
                "xyz": [
                    4.0795951067169804,
                    2.457526839123449,
                    5.751172239487827
                ],
                "label": "Ge",
                "properties": {}
            },
            {
                "species": [
                    {
                        "element": "Ge",
                        "occu": 1
                    }
                ],
                "abc": [
                    0.7757484,
                    0.35374192,
                    0.85587436
                ],
                "xyz": [
                    4.632894696547875,
                    5.064361224199118,
                    7.409679535301854
                ],
                "label": "Ge",
                "properties": {}
            },
            {
                "species": [
                    {
                        "element": "O",
                        "occu": 1
                    }
                ],
                "abc": [
                    0.55074938,
                    0.52350308,
                    0.74386483
                ],
                "xyz": [
                    3.387628029767933,
                    5.835679584352173,
                    6.440605383495073
                ],
                "label": "O",
                "properties": {}
            },
            {
                "species": [
                    {
                        "element": "O",
                        "occu": 1
                    }
                ],
                "abc": [
                    0.70993767,
                    0.08717907,
                    0.85303671
                ],
                "xyz": [
                    4.179346263761708,
                    3.286309132459834,
                    7.384689551206805
                ],
                "label": "O",
                "properties": {}
            },
            {
                "species": [
                    {
                        "element": "O",
                        "occu": 1
                    }
                ],
                "abc": [
                    0.93841005,
                    0.59782825,
                    0.22491267
                ],
                "xyz": [
                    5.546737393021556,
                    4.680560099441283,
                    1.9469302403862874
                ],
                "label": "O",
                "properties": {}
            },
            {
                "species": [
                    {
                        "element": "O",
                        "occu": 1
                    }
                ],
                "abc": [
                    0.76422595,
                    0.29513771,
                    0.51401091
                ],
                "xyz": [
                    4.504587322954807,
                    3.5898890107173003,
                    4.449676784973001
                ],
                "label": "O",
                "properties": {}
            },
            {
                "species": [
                    {
                        "element": "O",
                        "occu": 1
                    }
                ],
                "abc": [
                    0.39454258,
                    0.00084964,
                    0.65456809
                ],
                "xyz": [
                    2.3325907487018664,
                    2.0835835135630965,
                    5.666681072220692
                ],
                "label": "O",
                "properties": {}
            },
            {
                "species": [
                    {
                        "element": "O",
                        "occu": 1
                    }
                ],
                "abc": [
                    0.60545742,
                    0.99915036,
                    0.34543191
                ],
                "xyz": [
                    3.786337621298134,
                    7.727224286436903,
                    2.9917712477793086
                ],
                "label": "O",
                "properties": {}
            },
            {
                "species": [
                    {
                        "element": "O",
                        "occu": 1
                    }
                ],
                "abc": [
                    0.23577405,
                    0.70486229,
                    0.48598909
                ],
                "xyz": [
                    1.6143410470451947,
                    6.220918789282699,
                    4.208775535027
                ],
                "label": "O",
                "properties": {}
            },
            {
                "species": [
                    {
                        "element": "O",
                        "occu": 1
                    }
                ],
                "abc": [
                    0.90301265,
                    0.84445186,
                    0.6716137
                ],
                "xyz": [
                    5.477432934699066,
                    7.735848787831848,
                    5.815088006774085
                ],
                "label": "O",
                "properties": {}
            },
            {
                "species": [
                    {
                        "element": "O",
                        "occu": 1
                    }
                ],
                "abc": [
                    0.09698735,
                    0.15554814,
                    0.3283863
                ],
                "xyz": [
                    0.6414954353009347,
                    2.0749590121681525,
                    2.843364313225916
                ],
                "label": "O",
                "properties": {}
            },
            {
                "species": [
                    {
                        "element": "O",
                        "occu": 1
                    }
                ],
                "abc": [
                    0.7677596,
                    0.29675331,
                    0.05644089
                ],
                "xyz": [
                    4.464349783598855,
                    2.147653844437548,
                    0.48796398434707483
                ],
                "label": "O",
                "properties": {}
            },
            {
                "species": [
                    {
                        "element": "O",
                        "occu": 1
                    }
                ],
                "abc": [
                    0.06158995,
                    0.40217175,
                    0.77508733
                ],
                "xyz": [
                    0.5721909769784441,
                    5.1302477005587175,
                    6.711522079613713
                ],
                "label": "O",
                "properties": {}
            },
            {
                "species": [
                    {
                        "element": "O",
                        "occu": 1
                    }
                ],
                "abc": [
                    0.2322404,
                    0.70324669,
                    0.94355911
                ],
                "xyz": [
                    1.6545785864011455,
                    7.663153955562452,
                    8.170488335652927
                ],
                "label": "O",
                "properties": {}
            },
            {
                "species": [
                    {
                        "element": "O",
                        "occu": 1
                    }
                ],
                "abc": [
                    0.29006233,
                    0.91282093,
                    0.14696329
                ],
                "xyz": [
                    1.9395821062382912,
                    6.524498667540166,
                    1.2737627687931954
                ],
                "label": "O",
                "properties": {}
            },
            {
                "species": [
                    {
                        "element": "O",
                        "occu": 1
                    }
                ],
                "abc": [
                    0.44925062,
                    0.47649692,
                    0.25613517
                ],
                "xyz": [
                    2.7313003402320666,
                    3.975128215647828,
                    2.217846936504929
                ],
                "label": "O",
                "properties": {}
            }
        ]
    },
    "spacegroup": {
        "source": "spglib",
        "symbol": "P-1",
        "number": 2,
        "point_group": "-1",
        "crystal_system": "triclinic",
        "hall": "-P 1"
    },
    "dielectric": {
        "epsilon_ionic": [
            [
                9.60362527,
                1.10269201,
                0.0314055
            ],
            [
                1.10269201,
                6.44058947,
                0.87802701
            ],
            [
                0.0314055,
                0.87802701,
                6.3991607
            ]
        ],
        "epsilon_ionic_avg": 7.481125146666664,
        "epsilon_ionic_eig": [
            9.975373036006214,
            7.071304713538524,
            5.396697690455256
        ],
        "epsilon_electronic": [
            [
                3.42445511,
                -0.0271308,
                0.02537671
            ],
            [
                -0.02713195,
                3.14545177,
                0.00092929
            ],
            [
                0.02537143,
                0.0009316,
                3.36112685
            ]
        ],
        "epsilon_electronic_avg": 3.3103445766666675,
        "epsilon_electronic_eig": [
            3.1427856748303244,
            3.435580955414016,
            3.3526670997556614
        ]
    },
    "phonon": {
        "lowest_freq": -0.16389398500099034,
        "frequency": [
            -0.16389398500099034,
            -0.1206457518712876,
            -0.04194374654484649,
            1.6589953866353782,
            2.2078496422938323,
            2.5747394245430972,
            2.7370404396435646,
            2.873453012463841,
            3.1893997999898507,
            3.591032376385079,
            3.627420285256515,
            3.889054807825324,
            3.925047983679995,
            4.344562032992513,
            4.741172760697332,
            4.782487487498601,
            4.807682975514688,
            5.129200452349529,
            5.1761157034175955,
            5.463539122914271,
            5.475716417387518,
            5.58381475818476,
            5.679416601126418,
            5.7475544694276826,
            5.937668748257832,
            6.168938923222414,
            6.3260268871642555,
            6.438177390667583,
            6.729214518799519,
            6.781180084937629,
            6.9540169513826084,
            7.156486796439134,
            7.157080057549583,
            7.4941632940238065,
            7.693748236895132,
            7.83181964214203,
            7.948158355734547,
            8.275740260044682,
            8.34846505790407,
            8.475277919873259,
            8.87879068719654,
            9.007065345937104,
            9.331972651593304,
            9.600886224358229,
            9.949767791888805,
            10.219718513890946,
            10.2277695173136,
            10.814727777772587,
            11.043745698612954,
            11.865168670656729,
            12.505498440712994,
            12.886336563534895,
            13.08533789382374,
            13.265778803401856,
            13.504285271488923,
            13.98512562057207,
            16.543772452162187,
            17.21622321162834,
            20.508945892795456,
            20.76774334582094,
            21.39750741317939,
            21.587377966623205,
            22.046624961056107,
            22.377551568811608,
            22.460665362335032,
            22.55897227922154,
            24.01238592170276,
            24.72434601981505,
            25.30133335484335,
            25.84522243347364,
            26.765989289865253,
            27.27937873796669
        ]
    },
    "born_effective_charge": {
        "avg_abs_trace": 2.39235875,
        "tensors": [
            [
                [
                    1.09049,
                    0.00844,
                    -0.01687
                ],
                [
                    0.02225,
                    1.16928,
                    0.10247
                ],
                [
                    0.00342,
                    0.03695,
                    1.09808
                ]
            ],
            [
                [
                    1.05303,
                    -0.0457,
                    -0.03905
                ],
                [
                    -0.00715,
                    1.12298,
                    -0.04193
                ],
                [
                    -0.03624,
                    -0.01743,
                    1.03422
                ]
            ],
            [
                [
                    1.09048,
                    0.00843,
                    -0.01687
                ],
                [
                    0.02225,
                    1.16927,
                    0.10248
                ],
                [
                    0.00342,
                    0.03693,
                    1.09809
                ]
            ],
            [
                [
                    1.05303,
                    -0.0457,
                    -0.03905
                ],
                [
                    -0.00714,
                    1.12296,
                    -0.04193
                ],
                [
                    -0.03623,
                    -0.01744,
                    1.03423
                ]
            ],
            [
                [
                    5.73741,
                    0.49328,
                    -0.14074
                ],
                [
                    -0.68681,
                    4.55307,
                    -0.32801
                ],
                [
                    0.35082,
                    0.09375,
                    5.38964
                ]
            ],
            [
                [
                    5.73754,
                    0.4933,
                    -0.14057
                ],
                [
                    -0.68663,
                    4.5527,
                    -0.32801
                ],
                [
                    0.35075,
                    0.09397,
                    5.3899
                ]
            ],
            [
                [
                    3.54975,
                    -0.38598,
                    0.11811
                ],
                [
                    0.20962,
                    3.30163,
                    0.69662
                ],
                [
                    -0.17816,
                    -0.42484,
                    3.38808
                ]
            ],
            [
                [
                    3.47458,
                    -0.20338,
                    0.20828
                ],
                [
                    0.3024,
                    3.37582,
                    -0.31627
                ],
                [
                    0.03024,
                    0.45399,
                    3.72432
                ]
            ],
            [
                [
                    3.54973,
                    -0.38598,
                    0.11813
                ],
                [
                    0.20967,
                    3.30167,
                    0.69657
                ],
                [
                    -0.17811,
                    -0.42483,
                    3.38815
                ]
            ],
            [
                [
                    3.4746,
                    -0.20341,
                    0.20827
                ],
                [
                    0.30232,
                    3.37583,
                    -0.31634
                ],
                [
                    0.0302,
                    0.45391,
                    3.72435
                ]
            ],
            [
                [
                    -3.0316,
                    1.05035,
                    -0.50949
                ],
                [
                    1.06699,
                    -1.92431,
                    0.40157
                ],
                [
                    -0.55263,
                    0.29474,
                    -1.44796
                ]
            ],
            [
                [
                    -1.28742,
                    -0.10789,
                    -0.09653
                ],
                [
                    -0.36853,
                    -2.4676,
                    -0.69716
                ],
                [
                    -0.07159,
                    -0.60254,
                    -1.94747
                ]
            ],
            [
                [
                    -2.51437,
                    -0.7949,
                    0.52382
                ],
                [
                    -0.70368,
                    -2.11126,
                    0.34022
                ],
                [
                    0.44466,
                    0.23005,
                    -1.47686
                ]
            ],
            [
                [
                    -1.34019,
                    -0.0503,
                    0.1547
                ],
                [
                    -0.11736,
                    -1.62536,
                    -0.03257
                ],
                [
                    0.15441,
                    0.05131,
                    -3.12436
                ]
            ],
            [
                [
                    -2.52375,
                    -0.94879,
                    0.18625
                ],
                [
                    -0.79899,
                    -2.07009,
                    0.11485
                ],
                [
                    0.27902,
                    0.36621,
                    -1.49595
                ]
            ],
            [
                [
                    -2.52371,
                    -0.94882,
                    0.18627
                ],
                [
                    -0.79909,
                    -2.07007,
                    0.11463
                ],
                [
                    0.27913,
                    0.36631,
                    -1.49605
                ]
            ],
            [
                [
                    -1.34022,
                    -0.05023,
                    0.15468
                ],
                [
                    -0.1173,
                    -1.62526,
                    -0.03258
                ],
                [
                    0.15443,
                    0.05121,
                    -3.1242
                ]
            ],
            [
                [
                    -3.03793,
                    1.03894,
                    -0.36407
                ],
                [
                    1.11973,
                    -1.98317,
                    0.19373
                ],
                [
                    -0.41022,
                    0.34288,
                    -1.30247
                ]
            ],
            [
                [
                    -3.03794,
                    1.03891,
                    -0.36405
                ],
                [
                    1.11959,
                    -1.98298,
                    0.19377
                ],
                [
                    -0.41032,
                    0.34298,
                    -1.30247
                ]
            ],
            [
                [
                    -1.17017,
                    -0.05403,
                    -0.02446
                ],
                [
                    -0.03845,
                    -1.34091,
                    -0.43361
                ],
                [
                    -0.01374,
                    -0.82517,
                    -3.83959
                ]
            ],
            [
                [
                    -2.51434,
                    -0.79492,
                    0.52383
                ],
                [
                    -0.70364,
                    -2.11108,
                    0.34012
                ],
                [
                    0.44466,
                    0.23014,
                    -1.47684
                ]
            ],
            [
                [
                    -1.17016,
                    -0.05404,
                    -0.02453
                ],
                [
                    -0.03856,
                    -1.34084,
                    -0.43334
                ],
                [
                    -0.01369,
                    -0.82497,
                    -3.83958
                ]
            ],
            [
                [
                    -1.28728,
                    -0.10792,
                    -0.09653
                ],
                [
                    -0.36868,
                    -2.46779,
                    -0.69704
                ],
                [
                    -0.07165,
                    -0.60287,
                    -1.94735
                ]
            ],
            [
                [
                    -3.03157,
                    1.05034,
                    -0.50955
                ],
                [
                    1.0672,
                    -1.92449,
                    0.40175
                ],
                [
                    -0.55258,
                    0.29474,
                    -1.44791
                ]
            ]
        ]
    },
    "band_gap": 3.5887999999999995,
    "is_direct": true,
    "formula": "Na2ZrGe2O7"
}