{
    "mp_id": "mp-556046",
    "nelements": 4,
    "nsites": 24,
    "elements": [
        "B",
        "Ga",
        "O",
        "Sr"
    ],
    "structure": {
        "@module": "pymatgen.core.structure",
        "@class": "Structure",
        "charge": null,
        "lattice": {
            "matrix": [
                [
                    5.87080663,
                    -4.17233365,
                    0.0
                ],
                [
                    5.87080663,
                    4.17233365,
                    0.0
                ],
                [
                    0.0,
                    0.0,
                    5.68789879
                ]
            ],
            "a": 7.202411996947569,
            "b": 7.202411996947569,
            "c": 5.68789879,
            "alpha": 90.0,
            "beta": 90.0,
            "gamma": 70.80218580115253,
            "volume": 278.6497528189661
        },
        "sites": [
            {
                "species": [
                    {
                        "element": "Sr",
                        "occu": 1
                    }
                ],
                "abc": [
                    0.81812494,
                    0.18187506,
                    0.75
                ],
                "xyz": [
                    5.87080663,
                    -2.6546467841324617,
                    4.265924092500001
                ],
                "label": "Sr",
                "properties": {}
            },
            {
                "species": [
                    {
                        "element": "Sr",
                        "occu": 1
                    }
                ],
                "abc": [
                    0.18187506,
                    0.81812494,
                    0.25
                ],
                "xyz": [
                    5.87080663,
                    2.6546467841324617,
                    1.4219746975
                ],
                "label": "Sr",
                "properties": {}
            },
            {
                "species": [
                    {
                        "element": "Ga",
                        "occu": 1
                    }
                ],
                "abc": [
                    0.12494524,
                    0.29418541,
                    0.25
                ],
                "xyz": [
                    2.460634998856209,
                    0.7061264562227204,
                    1.4219746975
                ],
                "label": "Ga",
                "properties": {}
            },
            {
                "species": [
                    {
                        "element": "Ga",
                        "occu": 1
                    }
                ],
                "abc": [
                    0.29418541,
                    0.12494524,
                    0.75
                ],
                "xyz": [
                    2.460634998856209,
                    -0.7061264562227204,
                    4.265924092500001
                ],
                "label": "Ga",
                "properties": {}
            },
            {
                "species": [
                    {
                        "element": "Ga",
                        "occu": 1
                    }
                ],
                "abc": [
                    0.70581459,
                    0.87505476,
                    0.25
                ],
                "xyz": [
                    9.28097826114379,
                    0.7061264562227203,
                    1.4219746975
                ],
                "label": "Ga",
                "properties": {}
            },
            {
                "species": [
                    {
                        "element": "Ga",
                        "occu": 1
                    }
                ],
                "abc": [
                    0.87505476,
                    0.70581459,
                    0.75
                ],
                "xyz": [
                    9.28097826114379,
                    -0.7061264562227203,
                    4.265924092500001
                ],
                "label": "Ga",
                "properties": {}
            },
            {
                "species": [
                    {
                        "element": "B",
                        "occu": 1
                    }
                ],
                "abc": [
                    0.29585228,
                    0.48610245,
                    0.75
                ],
                "xyz": [
                    4.590705013243859,
                    0.7937871862092203,
                    4.265924092500001
                ],
                "label": "B",
                "properties": {}
            },
            {
                "species": [
                    {
                        "element": "B",
                        "occu": 1
                    }
                ],
                "abc": [
                    0.51389755,
                    0.70414772,
                    0.75
                ],
                "xyz": [
                    7.15090824675614,
                    0.7937871862092205,
                    4.265924092500001
                ],
                "label": "B",
                "properties": {}
            },
            {
                "species": [
                    {
                        "element": "B",
                        "occu": 1
                    }
                ],
                "abc": [
                    0.48610245,
                    0.29585228,
                    0.25
                ],
                "xyz": [
                    4.590705013243859,
                    -0.7937871862092203,
                    1.4219746975
                ],
                "label": "B",
                "properties": {}
            },
            {
                "species": [
                    {
                        "element": "B",
                        "occu": 1
                    }
                ],
                "abc": [
                    0.70414772,
                    0.51389755,
                    0.25
                ],
                "xyz": [
                    7.15090824675614,
                    -0.7937871862092205,
                    1.4219746975
                ],
                "label": "B",
                "properties": {}
            },
            {
                "species": [
                    {
                        "element": "O",
                        "occu": 1
                    }
                ],
                "abc": [
                    0.33728175,
                    0.66271825,
                    0.75
                ],
                "xyz": [
                    5.87080663,
                    1.357829659888225,
                    4.265924092500001
                ],
                "label": "O",
                "properties": {}
            },
            {
                "species": [
                    {
                        "element": "O",
                        "occu": 1
                    }
                ],
                "abc": [
                    0.12872249,
                    0.12872249,
                    0.0
                ],
                "xyz": [
                    1.5114096954442173,
                    0.0,
                    0.0
                ],
                "label": "O",
                "properties": {}
            },
            {
                "species": [
                    {
                        "element": "O",
                        "occu": 1
                    }
                ],
                "abc": [
                    0.30313526,
                    0.43774328,
                    0.25
                ],
                "xyz": [
                    4.34955464465672,
                    0.5616295714058728,
                    1.4219746975
                ],
                "label": "O",
                "properties": {}
            },
            {
                "species": [
                    {
                        "element": "O",
                        "occu": 1
                    }
                ],
                "abc": [
                    0.66271825,
                    0.33728175,
                    0.25
                ],
                "xyz": [
                    5.87080663,
                    -1.357829659888225,
                    1.4219746975
                ],
                "label": "O",
                "properties": {}
            },
            {
                "species": [
                    {
                        "element": "O",
                        "occu": 1
                    }
                ],
                "abc": [
                    0.87127751,
                    0.87127751,
                    0.0
                ],
                "xyz": [
                    10.230203564555781,
                    0.0,
                    0.0
                ],
                "label": "O",
                "properties": {}
            },
            {
                "species": [
                    {
                        "element": "O",
                        "occu": 1
                    }
                ],
                "abc": [
                    0.50562147,
                    0.89506207,
                    0.75
                ],
                "xyz": [
                    8.22314221316387,
                    1.6248761200561899,
                    4.265924092500001
                ],
                "label": "O",
                "properties": {}
            },
            {
                "species": [
                    {
                        "element": "O",
                        "occu": 1
                    }
                ],
                "abc": [
                    0.10493793,
                    0.49437853,
                    0.75
                ],
                "xyz": [
                    3.5184710468361295,
                    1.6248761200561896,
                    4.265924092500001
                ],
                "label": "O",
                "properties": {}
            },
            {
                "species": [
                    {
                        "element": "O",
                        "occu": 1
                    }
                ],
                "abc": [
                    0.89506207,
                    0.50562147,
                    0.25
                ],
                "xyz": [
                    8.22314221316387,
                    -1.6248761200561899,
                    1.4219746975
                ],
                "label": "O",
                "properties": {}
            },
            {
                "species": [
                    {
                        "element": "O",
                        "occu": 1
                    }
                ],
                "abc": [
                    0.69686474,
                    0.56225672,
                    0.75
                ],
                "xyz": [
                    7.392058615343279,
                    -0.5616295714058728,
                    4.265924092500001
                ],
                "label": "O",
                "properties": {}
            },
            {
                "species": [
                    {
                        "element": "O",
                        "occu": 1
                    }
                ],
                "abc": [
                    0.56225672,
                    0.69686474,
                    0.25
                ],
                "xyz": [
                    7.392058615343279,
                    0.5616295714058728,
                    1.4219746975
                ],
                "label": "O",
                "properties": {}
            },
            {
                "species": [
                    {
                        "element": "O",
                        "occu": 1
                    }
                ],
                "abc": [
                    0.49437853,
                    0.10493793,
                    0.25
                ],
                "xyz": [
                    3.5184710468361295,
                    -1.6248761200561896,
                    1.4219746975
                ],
                "label": "O",
                "properties": {}
            },
            {
                "species": [
                    {
                        "element": "O",
                        "occu": 1
                    }
                ],
                "abc": [
                    0.12872249,
                    0.12872249,
                    0.5
                ],
                "xyz": [
                    1.5114096954442173,
                    0.0,
                    2.843949395
                ],
                "label": "O",
                "properties": {}
            },
            {
                "species": [
                    {
                        "element": "O",
                        "occu": 1
                    }
                ],
                "abc": [
                    0.87127751,
                    0.87127751,
                    0.5
                ],
                "xyz": [
                    10.230203564555781,
                    0.0,
                    2.843949395
                ],
                "label": "O",
                "properties": {}
            },
            {
                "species": [
                    {
                        "element": "O",
                        "occu": 1
                    }
                ],
                "abc": [
                    0.43774328,
                    0.30313526,
                    0.75
                ],
                "xyz": [
                    4.34955464465672,
                    -0.5616295714058728,
                    4.265924092500001
                ],
                "label": "O",
                "properties": {}
            }
        ]
    },
    "spacegroup": {
        "source": "spglib",
        "symbol": "Cmcm",
        "number": 63,
        "point_group": "mmm",
        "crystal_system": "orthorhombic",
        "hall": "-C 2c 2"
    },
    "dielectric": {
        "epsilon_ionic": [
            [
                4.70272404,
                0.0,
                -0.0
            ],
            [
                0.0,
                4.14005162,
                0.0
            ],
            [
                -0.0,
                0.0,
                10.2255953
            ]
        ],
        "epsilon_ionic_avg": 6.356123653333334,
        "epsilon_ionic_eig": [
            4.70272404,
            4.14005162,
            10.2255953
        ],
        "epsilon_electronic": [
            [
                3.2904302,
                0.0,
                0.0
            ],
            [
                0.0,
                3.3121252,
                0.0
            ],
            [
                0.0,
                0.0,
                3.02603279
            ]
        ],
        "epsilon_electronic_avg": 3.209529396666667,
        "epsilon_electronic_eig": [
            3.2904302,
            3.3121252,
            3.02603279
        ]
    },
    "phonon": {
        "lowest_freq": -0.046880948222842125,
        "frequency": [
            -0.046880948222842125,
            -0.04491555888406997,
            -0.03389994957866294,
            1.8657985195232782,
            2.0428529350282454,
            2.504702471056594,
            2.7792833424447543,
            3.545241463878839,
            3.629973493260598,
            3.7750134120443946,
            3.818212977494319,
            3.8667392733310137,
            3.866945132118706,
            3.9234610646434223,
            3.9762120288757905,
            4.472079904676084,
            4.660324308960236,
            4.89551236789448,
            5.059693811245786,
            5.371963267599051,
            5.375782848898255,
            5.755657577128927,
            6.230332826309996,
            6.234928001620995,
            6.434630963431717,
            6.4551127652675255,
            8.008513517757885,
            8.206918945044908,
            8.262034424876152,
            9.069977295733983,
            9.187088378701372,
            9.230886949944338,
            9.393416920673184,
            9.449173153907822,
            10.02944990502366,
            10.184697721980228,
            12.633363412297172,
            12.981242605114396,
            13.459147967345302,
            13.632143544868393,
            13.919122915471343,
            14.251492253278787,
            14.389226523831576,
            14.485512210328286,
            14.541777565271031,
            15.995643494962549,
            16.487426763813126,
            16.816335083793366,
            17.828232680267668,
            18.126331315554232,
            18.21908851633685,
            18.472637825843382,
            19.16139056809906,
            19.75426403777056,
            20.219526217074463,
            20.530952856876297,
            20.677338769364887,
            21.356442380718864,
            21.699120602339136,
            21.99213179405291,
            25.497449434210072,
            25.612292015873784,
            29.854542510284308,
            30.04214121764103,
            37.671346178018446,
            38.359028441027924,
            38.597961335429034,
            39.44806649016839,
            39.98956442072992,
            39.991178522233234,
            40.86887066607675,
            41.06473290187047
        ]
    },
    "born_effective_charge": {
        "avg_abs_trace": 2.0920343055555555,
        "tensors": [
            [
                [
                    2.733,
                    2e-05,
                    -0.0
                ],
                [
                    -0.0,
                    2.68094,
                    -0.0
                ],
                [
                    -0.0,
                    5e-05,
                    2.24942
                ]
            ],
            [
                [
                    2.733,
                    -2e-05,
                    -0.0
                ],
                [
                    -0.0,
                    2.68095,
                    -0.0
                ],
                [
                    -0.0,
                    -5e-05,
                    2.24942
                ]
            ],
            [
                [
                    2.54916,
                    -0.23504,
                    -0.0
                ],
                [
                    -0.15297,
                    3.0765,
                    -0.0
                ],
                [
                    1e-05,
                    6e-05,
                    2.88807
                ]
            ],
            [
                [
                    2.54916,
                    0.23504,
                    0.0
                ],
                [
                    0.15296,
                    3.07655,
                    -0.0
                ],
                [
                    1e-05,
                    -6e-05,
                    2.88807
                ]
            ],
            [
                [
                    2.5492,
                    0.23503,
                    0.0
                ],
                [
                    0.15297,
                    3.0765,
                    -0.0
                ],
                [
                    -1e-05,
                    6e-05,
                    2.88807
                ]
            ],
            [
                [
                    2.5492,
                    -0.23503,
                    -0.0
                ],
                [
                    -0.15296,
                    3.07655,
                    -0.0
                ],
                [
                    -1e-05,
                    -6e-05,
                    2.88807
                ]
            ],
            [
                [
                    2.87858,
                    0.42369,
                    -0.0
                ],
                [
                    -0.36059,
                    2.5564,
                    -0.0
                ],
                [
                    1e-05,
                    3e-05,
                    1.04788
                ]
            ],
            [
                [
                    2.87856,
                    -0.42369,
                    -0.0
                ],
                [
                    0.36059,
                    2.5564,
                    -0.0
                ],
                [
                    -1e-05,
                    3e-05,
                    1.04788
                ]
            ],
            [
                [
                    2.87858,
                    -0.42369,
                    -0.0
                ],
                [
                    0.3606,
                    2.55641,
                    -0.0
                ],
                [
                    1e-05,
                    -3e-05,
                    1.04788
                ]
            ],
            [
                [
                    2.87856,
                    0.42369,
                    -0.0
                ],
                [
                    -0.3606,
                    2.55641,
                    -0.0
                ],
                [
                    -1e-05,
                    -3e-05,
                    1.04788
                ]
            ],
            [
                [
                    -3.04708,
                    5e-05,
                    -0.0
                ],
                [
                    -0.0,
                    -1.19489,
                    -0.0
                ],
                [
                    -0.0,
                    0.0,
                    -0.81625
                ]
            ],
            [
                [
                    -1.7499,
                    0.0,
                    -0.0
                ],
                [
                    -0.0,
                    -1.62649,
                    -0.13595
                ],
                [
                    -6e-05,
                    -0.20478,
                    -2.34513
                ]
            ],
            [
                [
                    -1.79441,
                    0.21198,
                    -0.0
                ],
                [
                    0.03731,
                    -2.25497,
                    -0.0
                ],
                [
                    3e-05,
                    -2e-05,
                    -1.19582
                ]
            ],
            [
                [
                    -3.04708,
                    -5e-05,
                    -0.0
                ],
                [
                    -0.0,
                    -1.19495,
                    -0.0
                ],
                [
                    -0.0,
                    -0.0,
                    -0.81625
                ]
            ],
            [
                [
                    -1.75002,
                    0.0,
                    -0.0
                ],
                [
                    0.0,
                    -1.62649,
                    -0.13595
                ],
                [
                    6e-05,
                    -0.20478,
                    -2.34513
                ]
            ],
            [
                [
                    -1.72626,
                    -0.41456,
                    -0.0
                ],
                [
                    -0.61725,
                    -2.4945,
                    -0.0
                ],
                [
                    -1e-05,
                    -5e-05,
                    -1.11158
                ]
            ],
            [
                [
                    -1.72634,
                    0.41456,
                    -0.0
                ],
                [
                    0.61725,
                    -2.4945,
                    -0.0
                ],
                [
                    1e-05,
                    -5e-05,
                    -1.11158
                ]
            ],
            [
                [
                    -1.72626,
                    0.41456,
                    -0.0
                ],
                [
                    0.61731,
                    -2.49456,
                    -0.0
                ],
                [
                    -1e-05,
                    5e-05,
                    -1.11158
                ]
            ],
            [
                [
                    -1.79449,
                    0.21186,
                    -0.0
                ],
                [
                    0.03727,
                    -2.25487,
                    -0.0
                ],
                [
                    -3e-05,
                    2e-05,
                    -1.19582
                ]
            ],
            [
                [
                    -1.79449,
                    -0.21186,
                    -0.0
                ],
                [
                    -0.03731,
                    -2.25497,
                    -0.0
                ],
                [
                    -3e-05,
                    -2e-05,
                    -1.19582
                ]
            ],
            [
                [
                    -1.72634,
                    -0.41456,
                    -0.0
                ],
                [
                    -0.61731,
                    -2.49456,
                    -0.0
                ],
                [
                    1e-05,
                    5e-05,
                    -1.11158
                ]
            ],
            [
                [
                    -1.7499,
                    0.0,
                    -0.0
                ],
                [
                    -0.0,
                    -1.62649,
                    0.13595
                ],
                [
                    -6e-05,
                    0.20478,
                    -2.34513
                ]
            ],
            [
                [
                    -1.75002,
                    0.0,
                    -0.0
                ],
                [
                    0.0,
                    -1.62649,
                    0.13595
                ],
                [
                    6e-05,
                    0.20478,
                    -2.34513
                ]
            ],
            [
                [
                    -1.79441,
                    -0.21198,
                    -0.0
                ],
                [
                    -0.03727,
                    -2.25487,
                    -0.0
                ],
                [
                    3e-05,
                    2e-05,
                    -1.19582
                ]
            ]
        ]
    },
    "band_gap": 4.0778,
    "is_direct": false,
    "formula": "SrGa2B2O7"
}