{
    "mp_id": "mp-540788",
    "nelements": 3,
    "nsites": 30,
    "elements": [
        "K",
        "Mo",
        "O"
    ],
    "structure": {
        "@module": "pymatgen.core.structure",
        "@class": "Structure",
        "charge": null,
        "lattice": {
            "matrix": [
                [
                    7.08048136,
                    -3.99844988,
                    0.00190627
                ],
                [
                    7.08048136,
                    3.99844988,
                    0.00190627
                ],
                [
                    -1.38820589,
                    0.0,
                    8.83919555
                ]
            ],
            "a": 8.131471045637733,
            "b": 8.131471045637733,
            "c": 8.947541202149923,
            "alpha": 97.75080358290056,
            "beta": 97.75080358290056,
            "gamma": 58.9080849171021,
            "volume": 500.51320591664194
        },
        "sites": [
            {
                "species": [
                    {
                        "element": "K",
                        "occu": 1
                    }
                ],
                "abc": [
                    0.22481741,
                    0.40517745,
                    0.34322012
                ],
                "xyz": [
                    3.984206670975303,
                    0.7211605802947952,
                    3.034990697676238
                ],
                "label": "K",
                "properties": {}
            },
            {
                "species": [
                    {
                        "element": "K",
                        "occu": 1
                    }
                ],
                "abc": [
                    0.59482255,
                    0.77518259,
                    0.15677988
                ],
                "xyz": [
                    9.482653104024697,
                    0.7211605802947956,
                    1.388419617323762
                ],
                "label": "K",
                "properties": {}
            },
            {
                "species": [
                    {
                        "element": "K",
                        "occu": 1
                    }
                ],
                "abc": [
                    0.77518259,
                    0.59482255,
                    0.65677988
                ],
                "xyz": [
                    8.788550159024696,
                    -0.7211605802947956,
                    5.8080173923237615
                ],
                "label": "K",
                "properties": {}
            },
            {
                "species": [
                    {
                        "element": "K",
                        "occu": 1
                    }
                ],
                "abc": [
                    0.40517745,
                    0.22481741,
                    0.84322012
                ],
                "xyz": [
                    3.2901037259753028,
                    -0.7211605802947952,
                    7.454588472676238
                ],
                "label": "K",
                "properties": {}
            },
            {
                "species": [
                    {
                        "element": "Mo",
                        "occu": 1
                    }
                ],
                "abc": [
                    0.0307835,
                    0.18503014,
                    0.01856355
                ],
                "xyz": [
                    1.502294425804441,
                    0.6167474591984032,
                    0.1644982476197253
                ],
                "label": "Mo",
                "properties": {}
            },
            {
                "species": [
                    {
                        "element": "Mo",
                        "occu": 1
                    }
                ],
                "abc": [
                    0.81496986,
                    0.9692165,
                    0.48143645
                ],
                "xyz": [
                    11.96456534919556,
                    0.6167474591984035,
                    4.258912067380275
                ],
                "label": "Mo",
                "properties": {}
            },
            {
                "species": [
                    {
                        "element": "Mo",
                        "occu": 1
                    }
                ],
                "abc": [
                    0.9692165,
                    0.81496986,
                    0.98143645
                ],
                "xyz": [
                    11.27046240419556,
                    -0.6167474591984035,
                    8.678509842380274
                ],
                "label": "Mo",
                "properties": {}
            },
            {
                "species": [
                    {
                        "element": "Mo",
                        "occu": 1
                    }
                ],
                "abc": [
                    0.18503014,
                    0.0307835,
                    0.51856355
                ],
                "xyz": [
                    0.808191480804441,
                    -0.6167474591984032,
                    4.5840960226197245
                ],
                "label": "Mo",
                "properties": {}
            },
            {
                "species": [
                    {
                        "element": "Mo",
                        "occu": 1
                    }
                ],
                "abc": [
                    0.29972585,
                    0.70027415,
                    0.75
                ],
                "xyz": [
                    6.039326942500001,
                    1.601572302069204,
                    6.6313029325
                ],
                "label": "Mo",
                "properties": {}
            },
            {
                "species": [
                    {
                        "element": "Mo",
                        "occu": 1
                    }
                ],
                "abc": [
                    0.70027415,
                    0.29972585,
                    0.25
                ],
                "xyz": [
                    6.7334298875,
                    -1.601572302069204,
                    2.2117051575
                ],
                "label": "Mo",
                "properties": {}
            },
            {
                "species": [
                    {
                        "element": "O",
                        "occu": 1
                    }
                ],
                "abc": [
                    0.15135731,
                    0.25887577,
                    0.58027497
                ],
                "xyz": [
                    2.099106545021816,
                    0.4299071734847848,
                    5.129945947613795
                ],
                "label": "O",
                "properties": {}
            },
            {
                "species": [
                    {
                        "element": "O",
                        "occu": 1
                    }
                ],
                "abc": [
                    0.74112423,
                    0.84864269,
                    0.91972503
                ],
                "xyz": [
                    9.979547339978186,
                    0.4299071734847848,
                    8.132659917386205
                ],
                "label": "O",
                "properties": {}
            },
            {
                "species": [
                    {
                        "element": "O",
                        "occu": 1
                    }
                ],
                "abc": [
                    0.84864269,
                    0.74112423,
                    0.41972503
                ],
                "xyz": [
                    10.673650284978185,
                    -0.4299071734847848,
                    3.7130621423862045
                ],
                "label": "O",
                "properties": {}
            },
            {
                "species": [
                    {
                        "element": "O",
                        "occu": 1
                    }
                ],
                "abc": [
                    0.25887577,
                    0.15135731,
                    0.08027497
                ],
                "xyz": [
                    2.793209490021816,
                    -0.4299071734847848,
                    0.710348172613795
                ],
                "label": "O",
                "properties": {}
            },
            {
                "species": [
                    {
                        "element": "O",
                        "occu": 1
                    }
                ],
                "abc": [
                    0.93455557,
                    0.11385257,
                    0.4087054
                ],
                "xyz": [
                    6.855867049387465,
                    -3.28153981186564,
                    3.6146255019260076
                ],
                "label": "O",
                "properties": {}
            },
            {
                "species": [
                    {
                        "element": "O",
                        "occu": 1
                    }
                ],
                "abc": [
                    0.88614743,
                    0.06544443,
                    0.0912946
                ],
                "xyz": [
                    6.610992725612535,
                    -3.28153981186564,
                    0.8087848130739922
                ],
                "label": "O",
                "properties": {}
            },
            {
                "species": [
                    {
                        "element": "O",
                        "occu": 1
                    }
                ],
                "abc": [
                    0.06544443,
                    0.88614743,
                    0.5912946
                ],
                "xyz": [
                    5.916889780612536,
                    3.28153981186564,
                    5.228382588073992
                ],
                "label": "O",
                "properties": {}
            },
            {
                "species": [
                    {
                        "element": "O",
                        "occu": 1
                    }
                ],
                "abc": [
                    0.11385257,
                    0.93455557,
                    0.9087054
                ],
                "xyz": [
                    6.161764104387464,
                    3.28153981186564,
                    8.034223276926006
                ],
                "label": "O",
                "properties": {}
            },
            {
                "species": [
                    {
                        "element": "O",
                        "occu": 1
                    }
                ],
                "abc": [
                    0.94528999,
                    0.32808301,
                    0.86768277
                ],
                "xyz": [
                    7.811571458861765,
                    -2.467871175116162,
                    7.672045072144384
                ],
                "label": "O",
                "properties": {}
            },
            {
                "species": [
                    {
                        "element": "O",
                        "occu": 1
                    }
                ],
                "abc": [
                    0.67191699,
                    0.05471001,
                    0.63231723
                ],
                "xyz": [
                    4.267082426138235,
                    -2.4678711751161626,
                    5.590560792855616
                ],
                "label": "O",
                "properties": {}
            },
            {
                "species": [
                    {
                        "element": "O",
                        "occu": 1
                    }
                ],
                "abc": [
                    0.05471001,
                    0.67191699,
                    0.13231723
                ],
                "xyz": [
                    4.961185371138235,
                    2.4678711751161626,
                    1.1709630178556165
                ],
                "label": "O",
                "properties": {}
            },
            {
                "species": [
                    {
                        "element": "O",
                        "occu": 1
                    }
                ],
                "abc": [
                    0.32808301,
                    0.94528999,
                    0.36768277
                ],
                "xyz": [
                    8.505674403861766,
                    2.467871175116162,
                    3.252447297144383
                ],
                "label": "O",
                "properties": {}
            },
            {
                "species": [
                    {
                        "element": "O",
                        "occu": 1
                    }
                ],
                "abc": [
                    0.11995262,
                    0.63753135,
                    0.82228735
                ],
                "xyz": [
                    4.2218469875413085,
                    2.0695126108590527,
                    7.269802653908784
                ],
                "label": "O",
                "properties": {}
            },
            {
                "species": [
                    {
                        "element": "O",
                        "occu": 1
                    }
                ],
                "abc": [
                    0.36246865,
                    0.88004738,
                    0.67771265
                ],
                "xyz": [
                    7.856806897458693,
                    2.0695126108590522,
                    5.992803211091215
                ],
                "label": "O",
                "properties": {}
            },
            {
                "species": [
                    {
                        "element": "O",
                        "occu": 1
                    }
                ],
                "abc": [
                    0.88004738,
                    0.36246865,
                    0.17771265
                ],
                "xyz": [
                    8.550909842458692,
                    -2.0695126108590522,
                    1.5732054360912155
                ],
                "label": "O",
                "properties": {}
            },
            {
                "species": [
                    {
                        "element": "O",
                        "occu": 1
                    }
                ],
                "abc": [
                    0.63753135,
                    0.11995262,
                    0.32228735
                ],
                "xyz": [
                    4.915949932541308,
                    -2.0695126108590527,
                    2.850204878908784
                ],
                "label": "O",
                "properties": {}
            },
            {
                "species": [
                    {
                        "element": "O",
                        "occu": 1
                    }
                ],
                "abc": [
                    0.37862105,
                    0.50944886,
                    0.61220384
                ],
                "xyz": [
                    5.43809746756326,
                    0.5231084411951625,
                    5.413082359248248
                ],
                "label": "O",
                "properties": {}
            },
            {
                "species": [
                    {
                        "element": "O",
                        "occu": 1
                    }
                ],
                "abc": [
                    0.49055114,
                    0.62137895,
                    0.88779616
                ],
                "xyz": [
                    6.6405564174367395,
                    0.523108441195163,
                    7.849523505751751
                ],
                "label": "O",
                "properties": {}
            },
            {
                "species": [
                    {
                        "element": "O",
                        "occu": 1
                    }
                ],
                "abc": [
                    0.62137895,
                    0.49055114,
                    0.38779616
                ],
                "xyz": [
                    7.3346593624367395,
                    -0.523108441195163,
                    3.429925730751752
                ],
                "label": "O",
                "properties": {}
            },
            {
                "species": [
                    {
                        "element": "O",
                        "occu": 1
                    }
                ],
                "abc": [
                    0.50944886,
                    0.37862105,
                    0.11220384
                ],
                "xyz": [
                    6.132200412563261,
                    -0.5231084411951625,
                    0.9934845842482476
                ],
                "label": "O",
                "properties": {}
            }
        ]
    },
    "spacegroup": {
        "source": "spglib",
        "symbol": "C2/c",
        "number": 15,
        "point_group": "2/m",
        "crystal_system": "monoclinic",
        "hall": "-C 2yc"
    },
    "dielectric": {
        "epsilon_ionic": [
            [
                6.72567515,
                -3.57e-06,
                -1.4787845
            ],
            [
                -3.57e-06,
                4.35374827,
                -2.6e-07
            ],
            [
                -1.4787845,
                -2.6e-07,
                5.91138592
            ]
        ],
        "epsilon_ionic_avg": 5.663603113333334,
        "epsilon_ionic_eig": [
            7.852339628391371,
            4.7847214416237245,
            4.353748269984908
        ],
        "epsilon_electronic": [
            [
                3.20042812,
                0.0,
                -0.12440497
            ],
            [
                0.0,
                3.21865667,
                0.0
            ],
            [
                -0.12440742,
                0.0,
                3.52191198
            ]
        ],
        "epsilon_electronic_avg": 3.31366559,
        "epsilon_electronic_eig": [
            3.1579094551642024,
            3.564430644835798,
            3.21865667
        ]
    },
    "phonon": {
        "lowest_freq": -0.07650493455785973,
        "frequency": [
            -0.07650493455785973,
            -0.06139940202486292,
            -0.0464161212985395,
            1.094177458316904,
            1.16121060969109,
            1.279277108890351,
            1.8058285979052018,
            1.8413316156307529,
            2.0959551666620913,
            2.208818257846823,
            2.2487392745198473,
            2.425395626446663,
            2.4351423060637445,
            2.642306864966755,
            2.6703351922861693,
            2.7411324288874668,
            2.7718630949527414,
            2.8186356077452763,
            3.121441118155556,
            3.124296219915977,
            3.180212704431549,
            3.259106593778577,
            3.397689818403837,
            3.43420242884777,
            3.5664728701785644,
            3.6391525712965787,
            3.641603636582482,
            3.7469179210911006,
            4.2592556832575585,
            4.283568897586667,
            4.547555558042103,
            4.82121235139736,
            4.9073811809653565,
            5.481031066118888,
            5.827532822185767,
            6.035629041148457,
            6.081185161757803,
            6.083519124228239,
            6.159915775741403,
            6.269790856657381,
            6.53678814230072,
            6.682515313175707,
            6.912617116795495,
            6.9774583189387265,
            7.462506020425154,
            7.612544324518313,
            7.665616395331643,
            7.787925397457243,
            8.257565921949636,
            8.347406631495954,
            8.804817931089222,
            8.995507903864983,
            9.230845964473994,
            9.677328619382589,
            9.733255909472408,
            9.997101266097863,
            10.191539682475714,
            10.28171088656911,
            10.58564197077602,
            10.665039140010212,
            11.046711032939033,
            11.065696368860184,
            14.279761142056126,
            14.322845718656863,
            14.543844767177344,
            14.879719643475124,
            15.908938415067148,
            16.709800720947847,
            16.783221192730736,
            16.83677514111043,
            16.937810851208372,
            19.061192646940917,
            20.193473137248738,
            20.865052094648423,
            21.67904406809839,
            21.704499321762686,
            21.80309749946481,
            22.708112823328996,
            26.182908924933294,
            26.419111140395895,
            26.61576171333145,
            26.730395693091776,
            26.861461359247716,
            27.16527796885035,
            27.559639799933024,
            27.690610339990826,
            27.79454857072438,
            28.224698496176202,
            28.22700838640487,
            28.43265790129213
        ]
    },
    "born_effective_charge": {
        "avg_abs_trace": 2.014917888888889,
        "tensors": [
            [
                [
                    1.46762,
                    0.18884,
                    0.05166
                ],
                [
                    0.01715,
                    1.34748,
                    0.05776
                ],
                [
                    0.04283,
                    -0.1321,
                    1.33436
                ]
            ],
            [
                [
                    1.46748,
                    -0.18876,
                    0.05166
                ],
                [
                    -0.01715,
                    1.34748,
                    -0.05776
                ],
                [
                    0.04283,
                    0.13209,
                    1.33435
                ]
            ],
            [
                [
                    1.46748,
                    0.18876,
                    0.05166
                ],
                [
                    0.01718,
                    1.34749,
                    0.05771
                ],
                [
                    0.04283,
                    -0.13209,
                    1.33435
                ]
            ],
            [
                [
                    1.46762,
                    -0.18884,
                    0.05166
                ],
                [
                    -0.01718,
                    1.34749,
                    -0.05771
                ],
                [
                    0.04283,
                    0.1321,
                    1.33436
                ]
            ],
            [
                [
                    3.46725,
                    -0.09441,
                    -0.33954
                ],
                [
                    0.6972,
                    3.63445,
                    0.70458
                ],
                [
                    0.58983,
                    1.20464,
                    4.23223
                ]
            ],
            [
                [
                    3.46645,
                    0.09354,
                    -0.3398
                ],
                [
                    -0.6972,
                    3.63445,
                    -0.70458
                ],
                [
                    0.59008,
                    -1.20463,
                    4.23213
                ]
            ],
            [
                [
                    3.46645,
                    -0.09354,
                    -0.3398
                ],
                [
                    0.69703,
                    3.63434,
                    0.70508
                ],
                [
                    0.59008,
                    1.20463,
                    4.23213
                ]
            ],
            [
                [
                    3.46725,
                    0.09441,
                    -0.33954
                ],
                [
                    -0.69703,
                    3.63434,
                    -0.70508
                ],
                [
                    0.58983,
                    -1.20464,
                    4.23223
                ]
            ],
            [
                [
                    4.19656,
                    -0.0001,
                    -0.0591
                ],
                [
                    -0.0,
                    4.33554,
                    0.0
                ],
                [
                    -1.73469,
                    -0.00039,
                    5.83795
                ]
            ],
            [
                [
                    4.19656,
                    0.0001,
                    -0.0591
                ],
                [
                    -0.0,
                    4.33549,
                    0.0
                ],
                [
                    -1.73469,
                    0.00039,
                    5.83795
                ]
            ],
            [
                [
                    -1.7904,
                    -0.93077,
                    -0.49504
                ],
                [
                    -0.66928,
                    -1.16648,
                    -0.13115
                ],
                [
                    -0.51764,
                    -0.24883,
                    -0.95096
                ]
            ],
            [
                [
                    -1.78596,
                    0.92693,
                    -0.49267
                ],
                [
                    0.66928,
                    -1.16648,
                    0.13115
                ],
                [
                    -0.51833,
                    0.24973,
                    -0.95134
                ]
            ],
            [
                [
                    -1.78596,
                    -0.92693,
                    -0.49267
                ],
                [
                    -0.67131,
                    -1.16723,
                    -0.13188
                ],
                [
                    -0.51833,
                    -0.24973,
                    -0.95134
                ]
            ],
            [
                [
                    -1.7904,
                    0.93077,
                    -0.49504
                ],
                [
                    0.67131,
                    -1.16723,
                    0.13188
                ],
                [
                    -0.51764,
                    0.24883,
                    -0.95096
                ]
            ],
            [
                [
                    -1.77184,
                    0.71432,
                    -0.21731
                ],
                [
                    0.84944,
                    -1.74022,
                    1.06112
                ],
                [
                    -0.40049,
                    1.58779,
                    -1.84965
                ]
            ],
            [
                [
                    -1.77267,
                    -0.71426,
                    -0.2178
                ],
                [
                    -0.84944,
                    -1.74022,
                    -1.06112
                ],
                [
                    -0.40026,
                    -1.58775,
                    -1.84957
                ]
            ],
            [
                [
                    -1.77267,
                    0.71426,
                    -0.2178
                ],
                [
                    0.8491,
                    -1.74036,
                    1.06118
                ],
                [
                    -0.40026,
                    1.58775,
                    -1.84957
                ]
            ],
            [
                [
                    -1.77184,
                    -0.71432,
                    -0.21731
                ],
                [
                    -0.8491,
                    -1.74036,
                    -1.06118
                ],
                [
                    -0.40049,
                    -1.58779,
                    -1.84965
                ]
            ],
            [
                [
                    -0.76196,
                    -0.57677,
                    0.65588
                ],
                [
                    -0.43198,
                    -1.1569,
                    0.66811
                ],
                [
                    0.46376,
                    0.67113,
                    -1.69885
                ]
            ],
            [
                [
                    -0.76323,
                    0.5787,
                    0.65847
                ],
                [
                    0.43198,
                    -1.1569,
                    -0.66811
                ],
                [
                    0.46369,
                    -0.67096,
                    -1.69793
                ]
            ],
            [
                [
                    -0.76323,
                    -0.5787,
                    0.65847
                ],
                [
                    -0.4308,
                    -1.15414,
                    0.6645
                ],
                [
                    0.46369,
                    0.67096,
                    -1.69793
                ]
            ],
            [
                [
                    -0.76196,
                    0.57677,
                    0.65588
                ],
                [
                    0.4308,
                    -1.15414,
                    -0.6645
                ],
                [
                    0.46376,
                    -0.67113,
                    -1.69885
                ]
            ],
            [
                [
                    -1.79871,
                    0.59831,
                    0.78284
                ],
                [
                    0.40628,
                    -1.63668,
                    -1.16522
                ],
                [
                    1.09204,
                    -1.55888,
                    -2.20899
                ]
            ],
            [
                [
                    -1.79899,
                    -0.59661,
                    0.78266
                ],
                [
                    -0.40628,
                    -1.63668,
                    1.16522
                ],
                [
                    1.09175,
                    1.55902,
                    -2.20992
                ]
            ],
            [
                [
                    -1.79899,
                    0.59661,
                    0.78266
                ],
                [
                    0.407,
                    -1.63641,
                    -1.16497
                ],
                [
                    1.09175,
                    -1.55902,
                    -2.20992
                ]
            ],
            [
                [
                    -1.79871,
                    -0.59831,
                    0.78284
                ],
                [
                    -0.407,
                    -1.63641,
                    1.16497
                ],
                [
                    1.09204,
                    1.55888,
                    -2.20899
                ]
            ],
            [
                [
                    -0.91114,
                    -0.35843,
                    -0.41114
                ],
                [
                    -0.60866,
                    -1.45101,
                    -1.08918
                ],
                [
                    -0.40259,
                    -0.75656,
                    -1.77645
                ]
            ],
            [
                [
                    -0.91046,
                    0.35831,
                    -0.41078
                ],
                [
                    0.60866,
                    -1.45101,
                    1.08918
                ],
                [
                    -0.40281,
                    0.75768,
                    -1.77736
                ]
            ],
            [
                [
                    -0.91046,
                    -0.35831,
                    -0.41078
                ],
                [
                    -0.60773,
                    -1.44984,
                    -1.08808
                ],
                [
                    -0.40281,
                    -0.75768,
                    -1.77736
                ]
            ],
            [
                [
                    -0.91114,
                    0.35843,
                    -0.41114
                ],
                [
                    0.60773,
                    -1.44984,
                    1.08808
                ],
                [
                    -0.40259,
                    0.75656,
                    -1.77645
                ]
            ]
        ]
    },
    "band_gap": 3.2252,
    "is_direct": false,
    "formula": "K2Mo3O10"
}