{
    "mp_id": "mp-559348",
    "nelements": 4,
    "nsites": 20,
    "elements": [
        "B",
        "Ba",
        "O",
        "Zr"
    ],
    "structure": {
        "@module": "pymatgen.core.structure",
        "@class": "Structure",
        "charge": null,
        "lattice": {
            "matrix": [
                [
                    2.58876727,
                    1.49462567,
                    11.38765333
                ],
                [
                    -2.58876727,
                    1.49462567,
                    11.38765333
                ],
                [
                    0.0,
                    -2.98925133,
                    11.38765333
                ]
            ],
            "a": 11.773456172080747,
            "b": 11.773456172080747,
            "c": 11.773456241824947,
            "alpha": 25.40416899445699,
            "beta": 25.40416899445699,
            "gamma": 25.40416665425361,
            "volume": 264.36924643404586
        },
        "sites": [
            {
                "species": [
                    {
                        "element": "Ba",
                        "occu": 1
                    }
                ],
                "abc": [
                    0.75,
                    0.75,
                    0.75
                ],
                "xyz": [
                    0.0,
                    7.500000176463573e-09,
                    25.6222199925
                ],
                "label": "Ba",
                "properties": {}
            },
            {
                "species": [
                    {
                        "element": "Ba",
                        "occu": 1
                    }
                ],
                "abc": [
                    0.25,
                    0.25,
                    0.25
                ],
                "xyz": [
                    0.0,
                    2.4999999848063226e-09,
                    8.5407399975
                ],
                "label": "Ba",
                "properties": {}
            },
            {
                "species": [
                    {
                        "element": "Zr",
                        "occu": 1
                    }
                ],
                "abc": [
                    0.0,
                    0.0,
                    0.0
                ],
                "xyz": [
                    0.0,
                    0.0,
                    0.0
                ],
                "label": "Zr",
                "properties": {}
            },
            {
                "species": [
                    {
                        "element": "Zr",
                        "occu": 1
                    }
                ],
                "abc": [
                    0.5,
                    0.5,
                    0.5
                ],
                "xyz": [
                    0.0,
                    4.999999969612645e-09,
                    17.081479995
                ],
                "label": "Zr",
                "properties": {}
            },
            {
                "species": [
                    {
                        "element": "B",
                        "occu": 1
                    }
                ],
                "abc": [
                    0.63087131,
                    0.63087131,
                    0.63087131
                ],
                "xyz": [
                    0.0,
                    6.308713107472386e-09,
                    21.552431322368882
                ],
                "label": "B",
                "properties": {}
            },
            {
                "species": [
                    {
                        "element": "B",
                        "occu": 1
                    }
                ],
                "abc": [
                    0.86912869,
                    0.86912869,
                    0.86912869
                ],
                "xyz": [
                    0.0,
                    8.69128680136555e-09,
                    29.69200866263111
                ],
                "label": "B",
                "properties": {}
            },
            {
                "species": [
                    {
                        "element": "B",
                        "occu": 1
                    }
                ],
                "abc": [
                    0.36912869,
                    0.36912869,
                    0.36912869
                ],
                "xyz": [
                    0.0,
                    3.6912870537975095e-09,
                    12.610528667631112
                ],
                "label": "B",
                "properties": {}
            },
            {
                "species": [
                    {
                        "element": "B",
                        "occu": 1
                    }
                ],
                "abc": [
                    0.13087131,
                    0.13087131,
                    0.13087131
                ],
                "xyz": [
                    0.0,
                    1.3087130823485893e-09,
                    4.470951327368886
                ],
                "label": "B",
                "properties": {}
            },
            {
                "species": [
                    {
                        "element": "O",
                        "occu": 1
                    }
                ],
                "abc": [
                    0.83184487,
                    0.34346246,
                    0.21488072
                ],
                "xyz": [
                    1.2643083982517203,
                    1.1143120275058034,
                    15.830979576908705
                ],
                "label": "O",
                "properties": {}
            },
            {
                "species": [
                    {
                        "element": "O",
                        "occu": 1
                    }
                ],
                "abc": [
                    0.84346246,
                    0.33184487,
                    0.71488072
                ],
                "xyz": [
                    1.3244588717482793,
                    -0.38031363749419667,
                    21.524806241908706
                ],
                "label": "O",
                "properties": {}
            },
            {
                "species": [
                    {
                        "element": "O",
                        "occu": 1
                    }
                ],
                "abc": [
                    0.28511928,
                    0.15653754,
                    0.66815513
                ],
                "xyz": [
                    0.33286820003164974,
                    -1.3371719904962536,
                    12.638153748091291
                ],
                "label": "O",
                "properties": {}
            },
            {
                "species": [
                    {
                        "element": "O",
                        "occu": 1
                    }
                ],
                "abc": [
                    0.33184487,
                    0.71488072,
                    0.84346246
                ],
                "xyz": [
                    -0.9915906717166295,
                    -0.9568583441001766,
                    21.524806241908706
                ],
                "label": "O",
                "properties": {}
            },
            {
                "species": [
                    {
                        "element": "O",
                        "occu": 1
                    }
                ],
                "abc": [
                    0.16815513,
                    0.65653754,
                    0.78511928
                ],
                "xyz": [
                    -1.2643083982517205,
                    -1.1143120175058034,
                    18.331980413091294
                ],
                "label": "O",
                "properties": {}
            },
            {
                "species": [
                    {
                        "element": "O",
                        "occu": 1
                    }
                ],
                "abc": [
                    0.66815513,
                    0.28511928,
                    0.15653754
                ],
                "xyz": [
                    0.9915906717166296,
                    0.9568583541001766,
                    12.638153748091291
                ],
                "label": "O",
                "properties": {}
            },
            {
                "species": [
                    {
                        "element": "O",
                        "occu": 1
                    }
                ],
                "abc": [
                    0.15653754,
                    0.66815513,
                    0.28511928
                ],
                "xyz": [
                    -1.3244588717482793,
                    0.3803136474941966,
                    12.638153748091293
                ],
                "label": "O",
                "properties": {}
            },
            {
                "species": [
                    {
                        "element": "O",
                        "occu": 1
                    }
                ],
                "abc": [
                    0.21488072,
                    0.83184487,
                    0.34346246
                ],
                "xyz": [
                    -1.59717659828337,
                    0.5377673208998233,
                    15.830979576908703
                ],
                "label": "O",
                "properties": {}
            },
            {
                "species": [
                    {
                        "element": "O",
                        "occu": 1
                    }
                ],
                "abc": [
                    0.78511928,
                    0.16815513,
                    0.65653754
                ],
                "xyz": [
                    1.5971765982833703,
                    -0.5377673108998235,
                    18.33198041309129
                ],
                "label": "O",
                "properties": {}
            },
            {
                "species": [
                    {
                        "element": "O",
                        "occu": 1
                    }
                ],
                "abc": [
                    0.65653754,
                    0.78511928,
                    0.16815513
                ],
                "xyz": [
                    -0.33286820003164985,
                    1.6520793445037465,
                    18.33198041309129
                ],
                "label": "O",
                "properties": {}
            },
            {
                "species": [
                    {
                        "element": "O",
                        "occu": 1
                    }
                ],
                "abc": [
                    0.34346246,
                    0.21488072,
                    0.83184487
                ],
                "xyz": [
                    0.33286820003164996,
                    -1.6520793345037466,
                    15.830979576908703
                ],
                "label": "O",
                "properties": {}
            },
            {
                "species": [
                    {
                        "element": "O",
                        "occu": 1
                    }
                ],
                "abc": [
                    0.71488072,
                    0.84346246,
                    0.33184487
                ],
                "xyz": [
                    -0.33286820003164985,
                    1.337172000496254,
                    21.524806241908706
                ],
                "label": "O",
                "properties": {}
            }
        ]
    },
    "spacegroup": {
        "source": "spglib",
        "symbol": "R-3c",
        "number": 167,
        "point_group": "-3m",
        "crystal_system": "trigonal",
        "hall": "-R 3 2\"c"
    },
    "dielectric": {
        "epsilon_ionic": [
            [
                7.57908987,
                0.0,
                1e-08
            ],
            [
                0.0,
                7.57906059,
                1.073e-05
            ],
            [
                1e-08,
                1.073e-05,
                9.54546433
            ]
        ],
        "epsilon_ionic_avg": 8.234538263333334,
        "epsilon_ionic_eig": [
            9.54546433005855,
            7.579089870000004,
            7.5790605899414505
        ],
        "epsilon_electronic": [
            [
                3.59304336,
                0.0,
                -0.0
            ],
            [
                0.0,
                3.59304501,
                9e-08
            ],
            [
                0.0,
                9e-08,
                3.05264315
            ]
        ],
        "epsilon_electronic_avg": 3.4129105066666665,
        "epsilon_electronic_eig": [
            3.052643149999985,
            3.593045010000015,
            3.59304336
        ]
    },
    "phonon": {
        "lowest_freq": -0.025660047586297745,
        "frequency": [
            -0.025660047586297745,
            -0.007814620267315081,
            -0.007814618484655323,
            1.712986628043744,
            1.712987013265829,
            1.86322254095688,
            1.8632228754420344,
            2.3619388784953617,
            2.972953999821079,
            3.1186399569608594,
            3.121160754573698,
            3.1211614397357526,
            3.5496741702524552,
            3.549674662540123,
            4.267776290574684,
            4.267776748705761,
            4.582642784610835,
            4.812819401014969,
            5.8479043123798835,
            5.947630070313914,
            5.947630275774008,
            5.948517797147546,
            6.766441215748574,
            6.7664415950027825,
            9.79829056525315,
            9.798291774995356,
            10.261701302413186,
            10.261702302715644,
            10.323328419212507,
            10.323329224147098,
            10.359524686697444,
            10.857208900762359,
            10.857209542308782,
            11.222359432536141,
            11.275164177831405,
            12.777865890943392,
            17.806355752442915,
            17.806356370087865,
            17.94905017894116,
            17.94905079167585,
            17.99409528742079,
            17.994095830710403,
            18.115877575251798,
            18.115878114889203,
            20.68644887180289,
            21.258513903301605,
            21.419679021207475,
            21.64864703630075,
            29.066514724858823,
            29.345722790016467,
            29.722774920672148,
            29.798110920126952,
            36.47470712212425,
            36.47471378915814,
            36.753075619247916,
            36.75308236878129,
            36.79967750746408,
            36.799684348070556,
            37.06287412054255,
            37.0628810444555
        ]
    },
    "born_effective_charge": {
        "avg_abs_trace": 2.505811333333333,
        "tensors": [
            [
                [
                    2.63781,
                    -0.0,
                    0.0
                ],
                [
                    1e-05,
                    2.63782,
                    -0.0
                ],
                [
                    0.0,
                    -0.0,
                    2.93747
                ]
            ],
            [
                [
                    2.63783,
                    -0.0,
                    0.0
                ],
                [
                    -1e-05,
                    2.63782,
                    -0.0
                ],
                [
                    0.0,
                    -0.0,
                    2.93747
                ]
            ],
            [
                [
                    5.31163,
                    -0.34044,
                    0.0
                ],
                [
                    0.34043,
                    5.31161,
                    2e-05
                ],
                [
                    0.0,
                    -0.0,
                    4.58951
                ]
            ],
            [
                [
                    5.31163,
                    0.34044,
                    -0.0
                ],
                [
                    -0.34043,
                    5.31161,
                    2e-05
                ],
                [
                    0.0,
                    -0.0,
                    4.58951
                ]
            ],
            [
                [
                    3.26959,
                    0.20377,
                    -1e-05
                ],
                [
                    -0.20374,
                    3.26966,
                    -0.0
                ],
                [
                    0.0,
                    0.0,
                    0.54135
                ]
            ],
            [
                [
                    3.26959,
                    -0.20377,
                    1e-05
                ],
                [
                    0.20373,
                    3.26965,
                    -0.0
                ],
                [
                    0.0,
                    0.0,
                    0.54134
                ]
            ],
            [
                [
                    3.2697,
                    0.20369,
                    1e-05
                ],
                [
                    -0.20373,
                    3.26965,
                    -0.0
                ],
                [
                    0.0,
                    0.0,
                    0.54134
                ]
            ],
            [
                [
                    3.2697,
                    -0.20369,
                    -1e-05
                ],
                [
                    0.20374,
                    3.26966,
                    -0.0
                ],
                [
                    0.0,
                    0.0,
                    0.54135
                ]
            ],
            [
                [
                    -2.90958,
                    -0.64899,
                    0.46125
                ],
                [
                    -0.6672,
                    -1.92003,
                    0.54815
                ],
                [
                    0.24614,
                    0.46565,
                    -1.43498
                ]
            ],
            [
                [
                    -2.90949,
                    0.64874,
                    -0.46114
                ],
                [
                    0.6672,
                    -1.92003,
                    0.54815
                ],
                [
                    -0.24614,
                    0.46565,
                    -1.43498
                ]
            ],
            [
                [
                    -1.59759,
                    0.09029,
                    -0.24411
                ],
                [
                    0.1086,
                    -3.23203,
                    -0.67349
                ],
                [
                    -0.28021,
                    -0.44602,
                    -1.43492
                ]
            ],
            [
                [
                    -2.7373,
                    -0.76654,
                    0.70536
                ],
                [
                    -0.74832,
                    -2.09229,
                    0.12532
                ],
                [
                    0.52633,
                    -0.01966,
                    -1.43498
                ]
            ],
            [
                [
                    -2.90949,
                    -0.64874,
                    0.46114
                ],
                [
                    -0.66719,
                    -1.92005,
                    0.54816
                ],
                [
                    0.24616,
                    0.46568,
                    -1.43492
                ]
            ],
            [
                [
                    -2.73728,
                    -0.76674,
                    0.70528
                ],
                [
                    -0.74831,
                    -2.0923,
                    0.12533
                ],
                [
                    0.52637,
                    -0.01966,
                    -1.43492
                ]
            ],
            [
                [
                    -2.90958,
                    0.64899,
                    -0.46125
                ],
                [
                    0.66719,
                    -1.92005,
                    0.54816
                ],
                [
                    -0.24616,
                    0.46568,
                    -1.43492
                ]
            ],
            [
                [
                    -2.73728,
                    0.76674,
                    -0.70528
                ],
                [
                    0.74832,
                    -2.09229,
                    0.12532
                ],
                [
                    -0.52633,
                    -0.01966,
                    -1.43498
                ]
            ],
            [
                [
                    -2.7373,
                    0.76654,
                    -0.70536
                ],
                [
                    0.74831,
                    -2.0923,
                    0.12533
                ],
                [
                    -0.52637,
                    -0.01966,
                    -1.43492
                ]
            ],
            [
                [
                    -1.59751,
                    -0.09029,
                    0.24413
                ],
                [
                    -0.1086,
                    -3.23203,
                    -0.67349
                ],
                [
                    0.28021,
                    -0.44602,
                    -1.43492
                ]
            ],
            [
                [
                    -1.59759,
                    -0.09029,
                    0.24411
                ],
                [
                    -0.10862,
                    -3.23204,
                    -0.67349
                ],
                [
                    0.28019,
                    -0.44599,
                    -1.43498
                ]
            ],
            [
                [
                    -1.59751,
                    0.09029,
                    -0.24413
                ],
                [
                    0.10862,
                    -3.23204,
                    -0.67349
                ],
                [
                    -0.28019,
                    -0.44599,
                    -1.43498
                ]
            ]
        ]
    },
    "band_gap": 4.6762999999999995,
    "is_direct": false,
    "formula": "BaZr(BO3)2"
}