{
    "mp_id": "mp-556550",
    "nelements": 3,
    "nsites": 12,
    "elements": [
        "Li",
        "Ni",
        "O"
    ],
    "structure": {
        "@module": "pymatgen.core.structure",
        "@class": "Structure",
        "charge": null,
        "lattice": {
            "matrix": [
                [
                    2.4128871,
                    -4.17365135,
                    -0.00055343
                ],
                [
                    2.4128871,
                    4.17365135,
                    -0.00055343
                ],
                [
                    -1.62862183,
                    0.0,
                    4.66061794
                ]
            ],
            "a": 4.820932488117625,
            "b": 4.820932488117625,
            "c": 4.936979709073392,
            "alpha": 99.50973223955977,
            "beta": 99.50973223955977,
            "gamma": 119.93354249723987,
            "volume": 93.8624436931269
        },
        "sites": [
            {
                "species": [
                    {
                        "element": "Li",
                        "occu": 1
                    }
                ],
                "abc": [
                    0.33749795,
                    0.66250205,
                    0.5
                ],
                "xyz": [
                    1.5985761849999998,
                    1.3564538007205347,
                    2.32975554
                ],
                "label": "Li",
                "properties": {}
            },
            {
                "species": [
                    {
                        "element": "Li",
                        "occu": 1
                    }
                ],
                "abc": [
                    0.0,
                    0.0,
                    0.5
                ],
                "xyz": [
                    -0.814310915,
                    0.0,
                    2.33030897
                ],
                "label": "Li",
                "properties": {}
            },
            {
                "species": [
                    {
                        "element": "Li",
                        "occu": 1
                    }
                ],
                "abc": [
                    0.66250205,
                    0.33749795,
                    0.5
                ],
                "xyz": [
                    1.5985761849999998,
                    -1.3564538007205347,
                    2.32975554
                ],
                "label": "Li",
                "properties": {}
            },
            {
                "species": [
                    {
                        "element": "Li",
                        "occu": 1
                    }
                ],
                "abc": [
                    0.5,
                    0.5,
                    0.0
                ],
                "xyz": [
                    2.4128871,
                    0.0,
                    -0.00055343
                ],
                "label": "Li",
                "properties": {}
            },
            {
                "species": [
                    {
                        "element": "Ni",
                        "occu": 1
                    }
                ],
                "abc": [
                    0.16686837,
                    0.83313163,
                    0.0
                ],
                "xyz": [
                    2.4128871,
                    2.780750554554401,
                    -0.00055343
                ],
                "label": "Ni",
                "properties": {}
            },
            {
                "species": [
                    {
                        "element": "Ni",
                        "occu": 1
                    }
                ],
                "abc": [
                    0.83313163,
                    0.16686837,
                    0.0
                ],
                "xyz": [
                    2.4128871,
                    -2.780750554554401,
                    -0.00055343
                ],
                "label": "Ni",
                "properties": {}
            },
            {
                "species": [
                    {
                        "element": "O",
                        "occu": 1
                    }
                ],
                "abc": [
                    0.57402144,
                    0.93270652,
                    0.22077004
                ],
                "xyz": [
                    3.2760135513393425,
                    1.4970264683668582,
                    1.0280909405836147
                ],
                "label": "O",
                "properties": {}
            },
            {
                "species": [
                    {
                        "element": "O",
                        "occu": 1
                    }
                ],
                "abc": [
                    0.42597856,
                    0.06729348,
                    0.77922996
                ],
                "xyz": [
                    -0.07886118133934272,
                    -1.4970264683668582,
                    3.631420139416385
                ],
                "label": "O",
                "properties": {}
            },
            {
                "species": [
                    {
                        "element": "O",
                        "occu": 1
                    }
                ],
                "abc": [
                    0.78285846,
                    0.78285846,
                    0.77616907
                ],
                "xyz": [
                    2.5138122673469336,
                    0.0,
                    3.61656097740008
                ],
                "label": "O",
                "properties": {}
            },
            {
                "species": [
                    {
                        "element": "O",
                        "occu": 1
                    }
                ],
                "abc": [
                    0.93270652,
                    0.57402144,
                    0.22077004
                ],
                "xyz": [
                    3.2760135513393425,
                    -1.4970264683668582,
                    1.0280909405836147
                ],
                "label": "O",
                "properties": {}
            },
            {
                "species": [
                    {
                        "element": "O",
                        "occu": 1
                    }
                ],
                "abc": [
                    0.06729348,
                    0.42597856,
                    0.77922996
                ],
                "xyz": [
                    -0.07886118133934272,
                    1.4970264683668582,
                    3.631420139416385
                ],
                "label": "O",
                "properties": {}
            },
            {
                "species": [
                    {
                        "element": "O",
                        "occu": 1
                    }
                ],
                "abc": [
                    0.21714154,
                    0.21714154,
                    0.22383093
                ],
                "xyz": [
                    0.683340102653066,
                    0.0,
                    1.0429501025999197
                ],
                "label": "O",
                "properties": {}
            }
        ]
    },
    "spacegroup": {
        "source": "spglib",
        "symbol": "C2/m",
        "number": 12,
        "point_group": "2/m",
        "crystal_system": "monoclinic",
        "hall": "-C 2y"
    },
    "dielectric": {
        "epsilon_ionic": [
            [
                12.06041591,
                0.0,
                -0.80910854
            ],
            [
                0.0,
                8.74171837,
                1e-08
            ],
            [
                -0.80910854,
                1e-08,
                7.8072315
            ]
        ],
        "epsilon_ionic_avg": 9.536455259999995,
        "epsilon_ionic_eig": [
            12.209137097890668,
            7.658510312109319,
            8.741718369999997
        ],
        "epsilon_electronic": [
            [
                8.88060939,
                0.0,
                -0.07713171
            ],
            [
                0.0,
                8.66145717,
                0.0
            ],
            [
                -0.07713143,
                0.0,
                5.34132211
            ]
        ],
        "epsilon_electronic_avg": 7.627796223333334,
        "epsilon_electronic_eig": [
            8.882289518169753,
            5.339641981830247,
            8.66145717
        ]
    },
    "phonon": {
        "lowest_freq": -0.05617119658679428,
        "frequency": [
            -0.05617119658679428,
            -0.027697292039912776,
            -0.02195837048437527,
            6.460691042687514,
            7.919411929363906,
            8.114139636256205,
            8.5446794312644,
            9.1262333078211,
            10.0543137978434,
            10.333984136841252,
            10.484399059705643,
            10.884085356933266,
            11.318073079829581,
            11.499957368586411,
            11.640401195960138,
            12.296658032821696,
            12.410435778658323,
            12.775826578085347,
            13.207559147957184,
            13.23034159105039,
            14.131151071521646,
            14.569683779625182,
            14.596413444469622,
            14.987704589707821,
            15.12307076528302,
            15.218938383472695,
            15.61971535278629,
            15.793904423837716,
            16.15472615850339,
            16.629635535891865,
            16.792391180462925,
            17.118450984695915,
            17.13462225744408,
            17.23311332410644,
            17.98650848202587,
            18.888103913088045
        ]
    },
    "born_effective_charge": {
        "avg_abs_trace": 1.5151158333333334,
        "tensors": [
            [
                [
                    1.47651,
                    5e-05,
                    -0.10825
                ],
                [
                    0.0,
                    0.88948,
                    0.0
                ],
                [
                    -0.06263,
                    -3e-05,
                    1.7397
                ]
            ],
            [
                [
                    0.62675,
                    0.0,
                    0.28982
                ],
                [
                    0.0,
                    1.74058,
                    0.0
                ],
                [
                    0.15094,
                    -0.0,
                    1.7472
                ]
            ],
            [
                [
                    1.47651,
                    -5e-05,
                    -0.10825
                ],
                [
                    -0.0,
                    0.88926,
                    0.0
                ],
                [
                    -0.06263,
                    3e-05,
                    1.7397
                ]
            ],
            [
                [
                    1.45679,
                    0.0,
                    0.01779
                ],
                [
                    0.0,
                    1.4649,
                    0.0
                ],
                [
                    -0.02277,
                    -0.0,
                    0.35725
                ]
            ],
            [
                [
                    2.61999,
                    0.00032,
                    -0.00949
                ],
                [
                    -0.0,
                    2.57211,
                    0.0
                ],
                [
                    -0.00682,
                    -3e-05,
                    0.64213
                ]
            ],
            [
                [
                    2.61999,
                    -0.00032,
                    -0.00949
                ],
                [
                    0.0,
                    2.57112,
                    0.0
                ],
                [
                    -0.00682,
                    3e-05,
                    0.64213
                ]
            ],
            [
                [
                    -1.95007,
                    0.47267,
                    0.43302
                ],
                [
                    0.37198,
                    -1.39992,
                    0.71445
                ],
                [
                    0.21526,
                    0.35281,
                    -1.09359
                ]
            ],
            [
                [
                    -1.95061,
                    0.47228,
                    0.43338
                ],
                [
                    0.37208,
                    -1.39954,
                    0.7142
                ],
                [
                    0.21514,
                    0.35338,
                    -1.09251
                ]
            ],
            [
                [
                    -1.23732,
                    0.0,
                    -0.90209
                ],
                [
                    3e-05,
                    -2.26426,
                    0.00021
                ],
                [
                    -0.42543,
                    -0.0,
                    -1.24785
                ]
            ],
            [
                [
                    -1.95007,
                    -0.47267,
                    0.43302
                ],
                [
                    -0.37208,
                    -1.39954,
                    -0.7142
                ],
                [
                    0.21526,
                    -0.35281,
                    -1.09359
                ]
            ],
            [
                [
                    -1.95061,
                    -0.47228,
                    0.43338
                ],
                [
                    -0.37198,
                    -1.39992,
                    -0.71445
                ],
                [
                    0.21514,
                    -0.35338,
                    -1.09251
                ]
            ],
            [
                [
                    -1.23783,
                    0.0,
                    -0.90285
                ],
                [
                    -3e-05,
                    -2.26426,
                    -0.00021
                ],
                [
                    -0.42464,
                    -0.0,
                    -1.24807
                ]
            ]
        ]
    },
    "band_gap": 1.3418,
    "is_direct": false,
    "formula": "Li2NiO3"
}