{
    "mp_id": "mp-560398",
    "nelements": 4,
    "nsites": 22,
    "elements": [
        "Ge",
        "K",
        "O",
        "Zn"
    ],
    "structure": {
        "@module": "pymatgen.core.structure",
        "@class": "Structure",
        "charge": null,
        "lattice": {
            "matrix": [
                [
                    3.21806987,
                    -4.88914961,
                    0.0
                ],
                [
                    3.21806987,
                    4.88914961,
                    0.0
                ],
                [
                    0.0,
                    0.0,
                    10.87470704
                ]
            ],
            "a": 5.853183543778972,
            "b": 5.853183543778972,
            "c": 10.87470704,
            "alpha": 90.0,
            "beta": 90.0,
            "gamma": 113.29365831476761,
            "volume": 342.19712618893647
        },
        "sites": [
            {
                "species": [
                    {
                        "element": "K",
                        "occu": 1
                    }
                ],
                "abc": [
                    0.78409164,
                    0.43584397,
                    0.92279452
                ],
                "xyz": [
                    3.9258380298810707,
                    -1.7026349599639081,
                    10.035120063117422
                ],
                "label": "K",
                "properties": {}
            },
            {
                "species": [
                    {
                        "element": "K",
                        "occu": 1
                    }
                ],
                "abc": [
                    0.56415603,
                    0.21590836,
                    0.57720548
                ],
                "xyz": [
                    2.510301710118929,
                    -1.7026349599639088,
                    6.27694049688258
                ],
                "label": "K",
                "properties": {}
            },
            {
                "species": [
                    {
                        "element": "K",
                        "occu": 1
                    }
                ],
                "abc": [
                    0.21590836,
                    0.56415603,
                    0.42279452
                ],
                "xyz": [
                    2.510301710118929,
                    1.7026349599639088,
                    4.597766543117421
                ],
                "label": "K",
                "properties": {}
            },
            {
                "species": [
                    {
                        "element": "K",
                        "occu": 1
                    }
                ],
                "abc": [
                    0.43584397,
                    0.78409164,
                    0.07720548
                ],
                "xyz": [
                    3.9258380298810707,
                    1.7026349599639081,
                    0.8395869768825793
                ],
                "label": "K",
                "properties": {}
            },
            {
                "species": [
                    {
                        "element": "Zn",
                        "occu": 1
                    }
                ],
                "abc": [
                    0.70062741,
                    0.29937259,
                    0.25
                ],
                "xyz": [
                    3.2180698699999994,
                    -1.9617948467136197,
                    2.71867676
                ],
                "label": "Zn",
                "properties": {}
            },
            {
                "species": [
                    {
                        "element": "Zn",
                        "occu": 1
                    }
                ],
                "abc": [
                    0.29937259,
                    0.70062741,
                    0.75
                ],
                "xyz": [
                    3.2180698699999994,
                    1.9617948467136197,
                    8.15603028
                ],
                "label": "Zn",
                "properties": {}
            },
            {
                "species": [
                    {
                        "element": "Ge",
                        "occu": 1
                    }
                ],
                "abc": [
                    0.82927669,
                    0.84860302,
                    0.35934259
                ],
                "xyz": [
                    5.399534140235337,
                    0.0944893187822311,
                    3.907745393244834
                ],
                "label": "Ge",
                "properties": {}
            },
            {
                "species": [
                    {
                        "element": "Ge",
                        "occu": 1
                    }
                ],
                "abc": [
                    0.15139698,
                    0.17072331,
                    0.14065741
                ],
                "xyz": [
                    1.0366055997646622,
                    0.09448931878223121,
                    1.5296081267551667
                ],
                "label": "Ge",
                "properties": {}
            },
            {
                "species": [
                    {
                        "element": "Ge",
                        "occu": 1
                    }
                ],
                "abc": [
                    0.17072331,
                    0.15139698,
                    0.85934259
                ],
                "xyz": [
                    1.0366055997646622,
                    -0.09448931878223121,
                    9.345098913244835
                ],
                "label": "Ge",
                "properties": {}
            },
            {
                "species": [
                    {
                        "element": "Ge",
                        "occu": 1
                    }
                ],
                "abc": [
                    0.84860302,
                    0.82927669,
                    0.64065741
                ],
                "xyz": [
                    5.399534140235337,
                    -0.0944893187822311,
                    6.966961646755166
                ],
                "label": "Ge",
                "properties": {}
            },
            {
                "species": [
                    {
                        "element": "O",
                        "occu": 1
                    }
                ],
                "abc": [
                    0.60881877,
                    0.97078286,
                    0.31971421
                ],
                "xyz": [
                    5.0832684121058875,
                    1.7696965894575047,
                    3.4767983702750387
                ],
                "label": "O",
                "properties": {}
            },
            {
                "species": [
                    {
                        "element": "O",
                        "occu": 1
                    }
                ],
                "abc": [
                    0.52236466,
                    0.7066129,
                    0.61981906
                ],
                "xyz": [
                    3.954935656742117,
                    0.9008172107391861,
                    6.740350695308183
                ],
                "label": "O",
                "properties": {}
            },
            {
                "species": [
                    {
                        "element": "O",
                        "occu": 1
                    }
                ],
                "abc": [
                    0.7066129,
                    0.52236466,
                    0.38018094
                ],
                "xyz": [
                    3.954935656742117,
                    -0.9008172107391861,
                    4.134356344691818
                ],
                "label": "O",
                "properties": {}
            },
            {
                "species": [
                    {
                        "element": "O",
                        "occu": 1
                    }
                ],
                "abc": [
                    0.39118123,
                    0.02921714,
                    0.81971421
                ],
                "xyz": [
                    1.3528713278941118,
                    -1.7696965894575047,
                    8.914151890275038
                ],
                "label": "O",
                "properties": {}
            },
            {
                "species": [
                    {
                        "element": "O",
                        "occu": 1
                    }
                ],
                "abc": [
                    0.99478248,
                    0.99478248,
                    0.5
                ],
                "xyz": [
                    6.402559052183755,
                    0.0,
                    5.43735352
                ],
                "label": "O",
                "properties": {}
            },
            {
                "species": [
                    {
                        "element": "O",
                        "occu": 1
                    }
                ],
                "abc": [
                    0.47763534,
                    0.2933871,
                    0.11981906
                ],
                "xyz": [
                    2.4812040832578828,
                    -0.9008172107391865,
                    1.3029971753081826
                ],
                "label": "O",
                "properties": {}
            },
            {
                "species": [
                    {
                        "element": "O",
                        "occu": 1
                    }
                ],
                "abc": [
                    0.07935969,
                    0.92064031,
                    0.25
                ],
                "xyz": [
                    3.21806987,
                    4.113146815173558,
                    2.71867676
                ],
                "label": "O",
                "properties": {}
            },
            {
                "species": [
                    {
                        "element": "O",
                        "occu": 1
                    }
                ],
                "abc": [
                    0.2933871,
                    0.47763534,
                    0.88018094
                ],
                "xyz": [
                    2.4812040832578828,
                    0.9008172107391865,
                    9.571709864691819
                ],
                "label": "O",
                "properties": {}
            },
            {
                "species": [
                    {
                        "element": "O",
                        "occu": 1
                    }
                ],
                "abc": [
                    0.00521752,
                    0.00521752,
                    0.0
                ],
                "xyz": [
                    0.0335806878162448,
                    0.0,
                    0.0
                ],
                "label": "O",
                "properties": {}
            },
            {
                "species": [
                    {
                        "element": "O",
                        "occu": 1
                    }
                ],
                "abc": [
                    0.92064031,
                    0.07935969,
                    0.75
                ],
                "xyz": [
                    3.21806987,
                    -4.113146815173558,
                    8.15603028
                ],
                "label": "O",
                "properties": {}
            },
            {
                "species": [
                    {
                        "element": "O",
                        "occu": 1
                    }
                ],
                "abc": [
                    0.02921714,
                    0.39118123,
                    0.18028579
                ],
                "xyz": [
                    1.3528713278941118,
                    1.7696965894575047,
                    1.9605551497249618
                ],
                "label": "O",
                "properties": {}
            },
            {
                "species": [
                    {
                        "element": "O",
                        "occu": 1
                    }
                ],
                "abc": [
                    0.97078286,
                    0.60881877,
                    0.68028579
                ],
                "xyz": [
                    5.0832684121058875,
                    -1.7696965894575047,
                    7.397908669724962
                ],
                "label": "O",
                "properties": {}
            }
        ]
    },
    "spacegroup": {
        "source": "spglib",
        "symbol": "C222_1",
        "number": 20,
        "point_group": "222",
        "crystal_system": "orthorhombic",
        "hall": "C 2c 2"
    },
    "dielectric": {
        "epsilon_ionic": [
            [
                4.64806487,
                3e-08,
                1e-08
            ],
            [
                3e-08,
                5.63224306,
                0.0
            ],
            [
                1e-08,
                0.0,
                8.60513533
            ]
        ],
        "epsilon_ionic_avg": 6.295147753333335,
        "epsilon_ionic_eig": [
            4.64806487,
            5.632243060000007,
            8.60513533
        ],
        "epsilon_electronic": [
            [
                2.91581699,
                0.0,
                0.0
            ],
            [
                0.0,
                3.02751543,
                0.0
            ],
            [
                0.0,
                0.0,
                3.05037707
            ]
        ],
        "epsilon_electronic_avg": 2.9979031633333335,
        "epsilon_electronic_eig": [
            2.91581699,
            3.02751543,
            3.05037707
        ]
    },
    "phonon": {
        "lowest_freq": -0.16454147570828334,
        "frequency": [
            -0.16454147570828334,
            -0.04270715194709817,
            -0.04107405562198284,
            1.120654640850222,
            1.6110065144789611,
            1.7622042473083799,
            2.231425482138369,
            2.4953357414128847,
            2.528929427353384,
            2.546580619487474,
            2.5705554200600567,
            2.6713478613147386,
            3.036876545971453,
            3.1102147358426278,
            3.2839792643384063,
            3.331203476588034,
            3.587715318689748,
            3.672900774476674,
            3.8553670030565774,
            4.0965786960357145,
            4.316857308042884,
            4.51440579679565,
            4.6042632500449,
            4.756801876908774,
            4.795143897805824,
            4.864213889683301,
            5.190850695686549,
            5.1933998894697355,
            5.5672441617697075,
            6.29109720828867,
            6.35219640215393,
            6.500442791604286,
            6.5852958565584165,
            6.951608615515414,
            7.4558569520841615,
            7.784310223011855,
            7.940215800012833,
            7.9707664955738915,
            8.71865001516102,
            8.90167093517904,
            8.99048192224907,
            9.108243601814104,
            11.52546237397436,
            11.761518471654156,
            12.180211317652518,
            12.599362086050974,
            12.746594105678373,
            12.994632552553028,
            13.453480935508187,
            14.13810945581993,
            16.239946128751537,
            16.386001845819006,
            16.665222460853695,
            16.72975248700817,
            20.541892263004623,
            22.15372059314039,
            22.31373144306181,
            22.322519854981202,
            22.506133653611762,
            22.753371926979508,
            22.84185141666113,
            22.885030025380043,
            23.575967450961887,
            23.81140631269526,
            24.654495734547456,
            25.122571168051255
        ]
    },
    "born_effective_charge": {
        "avg_abs_trace": 1.9016642424242427,
        "tensors": [
            [
                [
                    1.24704,
                    -0.08554,
                    -0.10535
                ],
                [
                    -0.11358,
                    1.16245,
                    0.00025
                ],
                [
                    -0.04909,
                    0.04054,
                    1.2325
                ]
            ],
            [
                [
                    1.24705,
                    0.08555,
                    -0.10532
                ],
                [
                    0.11358,
                    1.16245,
                    -0.00025
                ],
                [
                    -0.04911,
                    -0.04053,
                    1.23248
                ]
            ],
            [
                [
                    1.24705,
                    -0.08555,
                    0.10532
                ],
                [
                    -0.11358,
                    1.16246,
                    -0.00029
                ],
                [
                    0.04909,
                    -0.04054,
                    1.2325
                ]
            ],
            [
                [
                    1.24704,
                    0.08554,
                    0.10535
                ],
                [
                    0.11358,
                    1.16246,
                    0.00029
                ],
                [
                    0.04911,
                    0.04053,
                    1.23248
                ]
            ],
            [
                [
                    1.91624,
                    -8e-05,
                    0.51557
                ],
                [
                    -0.0,
                    2.37524,
                    0.0
                ],
                [
                    -0.0606,
                    -1e-05,
                    1.7603
                ]
            ],
            [
                [
                    1.91624,
                    8e-05,
                    -0.51557
                ],
                [
                    -0.0,
                    2.37508,
                    0.0
                ],
                [
                    0.0606,
                    1e-05,
                    1.7603
                ]
            ],
            [
                [
                    2.72462,
                    0.10471,
                    -0.5314
                ],
                [
                    0.19968,
                    2.8504,
                    -0.2242
                ],
                [
                    0.10093,
                    0.14362,
                    3.44594
                ]
            ],
            [
                [
                    2.72453,
                    -0.10486,
                    -0.53146
                ],
                [
                    -0.19968,
                    2.8504,
                    0.2242
                ],
                [
                    0.10093,
                    -0.14363,
                    3.44596
                ]
            ],
            [
                [
                    2.72453,
                    0.10486,
                    0.53146
                ],
                [
                    0.19963,
                    2.85034,
                    0.22425
                ],
                [
                    -0.10093,
                    -0.14362,
                    3.44594
                ]
            ],
            [
                [
                    2.72462,
                    -0.10471,
                    0.5314
                ],
                [
                    -0.19963,
                    2.85034,
                    -0.22425
                ],
                [
                    -0.10093,
                    0.14363,
                    3.44596
                ]
            ],
            [
                [
                    -1.42899,
                    -0.17605,
                    0.13989
                ],
                [
                    -0.17355,
                    -2.1183,
                    0.36119
                ],
                [
                    0.15938,
                    0.32862,
                    -1.44661
                ]
            ],
            [
                [
                    -1.89378,
                    0.57945,
                    0.1641
                ],
                [
                    0.58362,
                    -1.8185,
                    -0.1933
                ],
                [
                    0.16656,
                    -0.21555,
                    -1.60291
                ]
            ],
            [
                [
                    -1.89378,
                    -0.57945,
                    -0.1641
                ],
                [
                    -0.5837,
                    -1.81852,
                    -0.19337
                ],
                [
                    -0.16657,
                    -0.21552,
                    -1.60286
                ]
            ],
            [
                [
                    -1.42891,
                    -0.17641,
                    -0.1397
                ],
                [
                    -0.17358,
                    -2.11841,
                    -0.36113
                ],
                [
                    -0.15938,
                    -0.32862,
                    -1.44661
                ]
            ],
            [
                [
                    -1.45883,
                    -0.0,
                    0.0
                ],
                [
                    -2e-05,
                    -1.15028,
                    0.1884
                ],
                [
                    6e-05,
                    0.13414,
                    -2.89397
                ]
            ],
            [
                [
                    -1.89417,
                    0.57972,
                    -0.164
                ],
                [
                    0.5837,
                    -1.81852,
                    0.19337
                ],
                [
                    -0.16656,
                    0.21555,
                    -1.60291
                ]
            ],
            [
                [
                    -1.75487,
                    -0.00019,
                    0.96792
                ],
                [
                    -0.0,
                    -1.37682,
                    0.0
                ],
                [
                    0.94417,
                    5e-05,
                    -2.1242
                ]
            ],
            [
                [
                    -1.89417,
                    -0.57972,
                    0.164
                ],
                [
                    -0.58362,
                    -1.8185,
                    0.1933
                ],
                [
                    0.16657,
                    0.21552,
                    -1.60286
                ]
            ],
            [
                [
                    -1.45866,
                    -0.0,
                    0.0
                ],
                [
                    2e-05,
                    -1.15028,
                    -0.1884
                ],
                [
                    -6e-05,
                    -0.13414,
                    -2.89397
                ]
            ],
            [
                [
                    -1.75487,
                    0.00019,
                    -0.96792
                ],
                [
                    -0.0,
                    -1.37677,
                    0.0
                ],
                [
                    -0.94417,
                    -5e-05,
                    -2.1242
                ]
            ],
            [
                [
                    -1.42891,
                    0.17641,
                    0.1397
                ],
                [
                    0.17355,
                    -2.1183,
                    -0.36119
                ],
                [
                    0.15937,
                    -0.32866,
                    -1.44663
                ]
            ],
            [
                [
                    -1.42899,
                    0.17605,
                    -0.13989
                ],
                [
                    0.17358,
                    -2.11841,
                    0.36113
                ],
                [
                    -0.15937,
                    0.32866,
                    -1.44663
                ]
            ]
        ]
    },
    "band_gap": 2.9463,
    "is_direct": true,
    "formula": "K2Zn(GeO3)2"
}