{
    "mp_id": "mp-556697",
    "nelements": 4,
    "nsites": 28,
    "elements": [
        "Bi",
        "Ca",
        "O",
        "Ta"
    ],
    "structure": {
        "@module": "pymatgen.core.structure",
        "@class": "Structure",
        "charge": null,
        "lattice": {
            "matrix": [
                [
                    12.50066022,
                    -2.71696909,
                    0.0
                ],
                [
                    12.50066022,
                    2.71696909,
                    0.0
                ],
                [
                    0.0,
                    0.0,
                    5.48432222
                ]
            ],
            "a": 12.792514489806369,
            "b": 12.792514489806369,
            "c": 5.48432222,
            "alpha": 90.0,
            "beta": 90.0,
            "gamma": 24.52459538454012,
            "volume": 372.53802430864323
        },
        "sites": [
            {
                "species": [
                    {
                        "element": "Ca",
                        "occu": 1
                    }
                ],
                "abc": [
                    0.24469334,
                    0.75530666,
                    0.49867527
                ],
                "xyz": [
                    12.50066022,
                    1.3873206073822786,
                    2.7348958638254994
                ],
                "label": "Ca",
                "properties": {}
            },
            {
                "species": [
                    {
                        "element": "Ca",
                        "occu": 1
                    }
                ],
                "abc": [
                    0.75530666,
                    0.24469334,
                    0.99867527
                ],
                "xyz": [
                    12.50066022,
                    -1.3873206073822786,
                    5.4770569738254995
                ],
                "label": "Ca",
                "properties": {}
            },
            {
                "species": [
                    {
                        "element": "Ta",
                        "occu": 1
                    }
                ],
                "abc": [
                    0.33291742,
                    0.83050646,
                    0.95772045
                ],
                "xyz": [
                    14.543566615714052,
                    1.3519340412027732,
                    5.252447544483399
                ],
                "label": "Ta",
                "properties": {}
            },
            {
                "species": [
                    {
                        "element": "Ta",
                        "occu": 1
                    }
                ],
                "abc": [
                    0.66708258,
                    0.16949354,
                    0.45772045
                ],
                "xyz": [
                    10.457753824285945,
                    -1.3519340412027736,
                    2.5102864344833993
                ],
                "label": "Ta",
                "properties": {}
            },
            {
                "species": [
                    {
                        "element": "Ta",
                        "occu": 1
                    }
                ],
                "abc": [
                    0.83050646,
                    0.33291742,
                    0.45772045
                ],
                "xyz": [
                    14.543566615714052,
                    -1.3519340412027732,
                    2.5102864344833993
                ],
                "label": "Ta",
                "properties": {}
            },
            {
                "species": [
                    {
                        "element": "Ta",
                        "occu": 1
                    }
                ],
                "abc": [
                    0.16949354,
                    0.66708258,
                    0.95772045
                ],
                "xyz": [
                    10.457753824285945,
                    1.3519340412027736,
                    5.252447544483399
                ],
                "label": "Ta",
                "properties": {}
            },
            {
                "species": [
                    {
                        "element": "Bi",
                        "occu": 1
                    }
                ],
                "abc": [
                    0.57687985,
                    0.02492235,
                    0.0423597
                ],
                "xyz": [
                    7.522924821848484,
                    -1.4996514664936749,
                    0.232314243942534
                ],
                "label": "Bi",
                "properties": {}
            },
            {
                "species": [
                    {
                        "element": "Bi",
                        "occu": 1
                    }
                ],
                "abc": [
                    0.97507765,
                    0.42312015,
                    0.0423597
                ],
                "xyz": [
                    17.478395618151517,
                    -1.4996514664936753,
                    0.232314243942534
                ],
                "label": "Bi",
                "properties": {}
            },
            {
                "species": [
                    {
                        "element": "Bi",
                        "occu": 1
                    }
                ],
                "abc": [
                    0.02492235,
                    0.57687985,
                    0.5423597
                ],
                "xyz": [
                    7.522924821848484,
                    1.4996514664936749,
                    2.974475353942534
                ],
                "label": "Bi",
                "properties": {}
            },
            {
                "species": [
                    {
                        "element": "Bi",
                        "occu": 1
                    }
                ],
                "abc": [
                    0.42312015,
                    0.97507765,
                    0.5423597
                ],
                "xyz": [
                    17.478395618151517,
                    1.4996514664936753,
                    2.974475353942534
                ],
                "label": "Bi",
                "properties": {}
            },
            {
                "species": [
                    {
                        "element": "O",
                        "occu": 1
                    }
                ],
                "abc": [
                    0.01617168,
                    0.67297452,
                    0.95608341
                ],
                "xyz": [
                    8.614782488104165,
                    1.7845130145042158,
                    5.24346948963637
                ],
                "label": "O",
                "properties": {}
            },
            {
                "species": [
                    {
                        "element": "O",
                        "occu": 1
                    }
                ],
                "abc": [
                    0.64416635,
                    0.52984389,
                    0.14555815
                ],
                "xyz": [
                    14.675903105040653,
                    -0.3106105901127614,
                    0.798287796347093
                ],
                "label": "O",
                "properties": {}
            },
            {
                "species": [
                    {
                        "element": "O",
                        "occu": 1
                    }
                ],
                "abc": [
                    0.33161194,
                    0.66838806,
                    0.92905463
                ],
                "xyz": [
                    12.50066022,
                    0.9150103082901306,
                    5.095234950902879
                ],
                "label": "O",
                "properties": {}
            },
            {
                "species": [
                    {
                        "element": "O",
                        "occu": 1
                    }
                ],
                "abc": [
                    0.66838806,
                    0.33161194,
                    0.42905463
                ],
                "xyz": [
                    12.50066022,
                    -0.9150103082901306,
                    2.3530738409028786
                ],
                "label": "O",
                "properties": {}
            },
            {
                "species": [
                    {
                        "element": "O",
                        "occu": 1
                    }
                ],
                "abc": [
                    0.47015611,
                    0.35583365,
                    0.14555815
                ],
                "xyz": [
                    10.325417334959347,
                    -0.3106105901127614,
                    0.798287796347093
                ],
                "label": "O",
                "properties": {}
            },
            {
                "species": [
                    {
                        "element": "O",
                        "occu": 1
                    }
                ],
                "abc": [
                    0.24212997,
                    0.25976753,
                    0.77194157
                ],
                "xyz": [
                    6.274050112767451,
                    0.04792070534302051,
                    4.2335763048926855
                ],
                "label": "O",
                "properties": {}
            },
            {
                "species": [
                    {
                        "element": "O",
                        "occu": 1
                    }
                ],
                "abc": [
                    0.67297452,
                    0.01617168,
                    0.45608341
                ],
                "xyz": [
                    8.614782488104165,
                    -1.7845130145042158,
                    2.50130837963637
                ],
                "label": "O",
                "properties": {}
            },
            {
                "species": [
                    {
                        "element": "O",
                        "occu": 1
                    }
                ],
                "abc": [
                    0.89945211,
                    0.97838983,
                    0.73752227
                ],
                "xyz": [
                    23.47426403880563,
                    0.21447134527507483,
                    4.04480977310584
                ],
                "label": "O",
                "properties": {}
            },
            {
                "species": [
                    {
                        "element": "O",
                        "occu": 1
                    }
                ],
                "abc": [
                    0.02161017,
                    0.10054789,
                    0.73752227
                ],
                "xyz": [
                    1.5270564011943732,
                    0.21447134527507483,
                    4.04480977310584
                ],
                "label": "O",
                "properties": {}
            },
            {
                "species": [
                    {
                        "element": "O",
                        "occu": 1
                    }
                ],
                "abc": [
                    0.52984389,
                    0.64416635,
                    0.64555815
                ],
                "xyz": [
                    14.675903105040653,
                    0.3106105901127614,
                    3.5404489063470934
                ],
                "label": "O",
                "properties": {}
            },
            {
                "species": [
                    {
                        "element": "O",
                        "occu": 1
                    }
                ],
                "abc": [
                    0.98382832,
                    0.32702548,
                    0.45608341
                ],
                "xyz": [
                    16.386537951895836,
                    -1.7845130145042156,
                    2.50130837963637
                ],
                "label": "O",
                "properties": {}
            },
            {
                "species": [
                    {
                        "element": "O",
                        "occu": 1
                    }
                ],
                "abc": [
                    0.10054789,
                    0.02161017,
                    0.23752227
                ],
                "xyz": [
                    1.5270564011943732,
                    -0.21447134527507483,
                    1.3026486631058394
                ],
                "label": "O",
                "properties": {}
            },
            {
                "species": [
                    {
                        "element": "O",
                        "occu": 1
                    }
                ],
                "abc": [
                    0.75787003,
                    0.74023247,
                    0.27194157
                ],
                "xyz": [
                    18.727270327232553,
                    -0.0479207053430204,
                    1.4914151948926855
                ],
                "label": "O",
                "properties": {}
            },
            {
                "species": [
                    {
                        "element": "O",
                        "occu": 1
                    }
                ],
                "abc": [
                    0.35583365,
                    0.47015611,
                    0.64555815
                ],
                "xyz": [
                    10.325417334959347,
                    0.3106105901127614,
                    3.5404489063470934
                ],
                "label": "O",
                "properties": {}
            },
            {
                "species": [
                    {
                        "element": "O",
                        "occu": 1
                    }
                ],
                "abc": [
                    0.25976753,
                    0.24212997,
                    0.27194157
                ],
                "xyz": [
                    6.274050112767451,
                    -0.04792070534302051,
                    1.4914151948926855
                ],
                "label": "O",
                "properties": {}
            },
            {
                "species": [
                    {
                        "element": "O",
                        "occu": 1
                    }
                ],
                "abc": [
                    0.97838983,
                    0.89945211,
                    0.23752227
                ],
                "xyz": [
                    23.47426403880563,
                    -0.21447134527507483,
                    1.3026486631058394
                ],
                "label": "O",
                "properties": {}
            },
            {
                "species": [
                    {
                        "element": "O",
                        "occu": 1
                    }
                ],
                "abc": [
                    0.32702548,
                    0.98382832,
                    0.95608341
                ],
                "xyz": [
                    16.386537951895836,
                    1.7845130145042156,
                    5.24346948963637
                ],
                "label": "O",
                "properties": {}
            },
            {
                "species": [
                    {
                        "element": "O",
                        "occu": 1
                    }
                ],
                "abc": [
                    0.74023247,
                    0.75787003,
                    0.77194157
                ],
                "xyz": [
                    18.727270327232553,
                    0.0479207053430204,
                    4.2335763048926855
                ],
                "label": "O",
                "properties": {}
            }
        ]
    },
    "spacegroup": {
        "source": "spglib",
        "symbol": "Cmc2_1",
        "number": 36,
        "point_group": "mm2",
        "crystal_system": "orthorhombic",
        "hall": "C 2c -2"
    },
    "dielectric": {
        "epsilon_ionic": [
            [
                33.38857682,
                0.0,
                7.98e-06
            ],
            [
                0.0,
                31.14344025,
                1.32e-06
            ],
            [
                7.98e-06,
                1.32e-06,
                32.29882039
            ]
        ],
        "epsilon_ionic_avg": 32.27694582000001,
        "epsilon_ionic_eig": [
            33.388576820058454,
            32.29882038994308,
            31.14344024999849
        ],
        "epsilon_electronic": [
            [
                5.53192118,
                0.0,
                0.0
            ],
            [
                0.0,
                5.64798764,
                0.0
            ],
            [
                0.0,
                0.0,
                5.56509562
            ]
        ],
        "epsilon_electronic_avg": 5.581668146666668,
        "epsilon_electronic_eig": [
            5.53192118,
            5.64798764,
            5.56509562
        ]
    },
    "phonon": {
        "lowest_freq": -0.02811173671358567,
        "frequency": [
            -0.02811173671358567,
            -0.026521042503611446,
            -0.01754814062211471,
            1.3296542447395883,
            1.5563324030119052,
            1.8453658016986871,
            2.1168225452620844,
            2.2588011390728386,
            2.3557226554962294,
            2.5173924622329404,
            2.605068637194588,
            2.645836396228448,
            2.824223873832686,
            3.1239014565659557,
            3.8438616125119824,
            4.196595589937681,
            4.405276744640457,
            4.605157346386963,
            4.637726464954399,
            4.786459064176437,
            4.832583602784026,
            4.948378685114157,
            5.108857539018573,
            5.311391519936956,
            5.32392210932136,
            5.441016660510037,
            5.731706549014139,
            5.952822779903003,
            5.9566865747726405,
            6.028379434153465,
            6.044796454464542,
            6.765412329185432,
            6.851589416224194,
            6.949901938599572,
            7.039006886800873,
            7.104095185162214,
            7.131377489173441,
            7.374190157751246,
            7.446714618882479,
            7.534283437150428,
            7.942055109685532,
            7.982585531139363,
            8.033627748679786,
            8.35031427763353,
            8.630803771081194,
            8.770979330258157,
            8.863816491454521,
            9.325451231734434,
            9.696192527092435,
            9.698494713905518,
            9.875800922636607,
            10.047111447577947,
            10.065643747822884,
            10.196244314974773,
            10.504404810428383,
            10.654371857132512,
            10.661463070185965,
            11.484833865928648,
            11.551753501029975,
            12.97582465135888,
            12.981905351838382,
            13.099717607323292,
            13.221014623742459,
            13.484270011657133,
            13.761735258217875,
            13.859633912343112,
            13.979874797658965,
            15.01540256141082,
            15.283317095156146,
            15.713856568171813,
            16.409293240780787,
            17.194988279719027,
            17.660824610843637,
            17.80313032420969,
            18.20327325654275,
            18.49238348059205,
            18.60369375230863,
            18.810447292538303,
            19.117614417027667,
            19.256401458580914,
            22.000170965271383,
            22.598471654292105,
            25.79116177845883,
            25.882218638532674
        ]
    },
    "born_effective_charge": {
        "avg_abs_trace": 3.7412303571428573,
        "tensors": [
            [
                [
                    2.60581,
                    -0.0,
                    -1e-05
                ],
                [
                    0.0,
                    2.46723,
                    -0.09
                ],
                [
                    -0.0,
                    -0.26224,
                    2.41311
                ]
            ],
            [
                [
                    2.60581,
                    0.0,
                    -1e-05
                ],
                [
                    0.0,
                    2.46728,
                    0.08993
                ],
                [
                    -0.0,
                    0.26224,
                    2.41311
                ]
            ],
            [
                [
                    7.54802,
                    0.52874,
                    -0.10433
                ],
                [
                    0.01978,
                    7.40972,
                    0.61982
                ],
                [
                    -0.06985,
                    -0.71052,
                    7.09179
                ]
            ],
            [
                [
                    7.54802,
                    0.52874,
                    0.10434
                ],
                [
                    0.01977,
                    7.40972,
                    -0.61982
                ],
                [
                    0.06985,
                    0.71052,
                    7.09179
                ]
            ],
            [
                [
                    7.54802,
                    -0.52874,
                    -0.10433
                ],
                [
                    -0.01977,
                    7.40972,
                    -0.61982
                ],
                [
                    -0.06985,
                    0.71052,
                    7.09179
                ]
            ],
            [
                [
                    7.54802,
                    -0.52874,
                    0.10434
                ],
                [
                    -0.01978,
                    7.40972,
                    0.61982
                ],
                [
                    0.06985,
                    -0.71052,
                    7.09179
                ]
            ],
            [
                [
                    4.00596,
                    -0.89478,
                    0.43246
                ],
                [
                    -0.56902,
                    4.78711,
                    0.21652
                ],
                [
                    0.11794,
                    0.3673,
                    4.69719
                ]
            ],
            [
                [
                    4.00603,
                    0.89477,
                    -0.43245
                ],
                [
                    0.56902,
                    4.78711,
                    0.21652
                ],
                [
                    -0.11794,
                    0.3673,
                    4.69719
                ]
            ],
            [
                [
                    4.00596,
                    0.89478,
                    0.43246
                ],
                [
                    0.56899,
                    4.78712,
                    -0.21651
                ],
                [
                    0.11794,
                    -0.3673,
                    4.69719
                ]
            ],
            [
                [
                    4.00603,
                    -0.89477,
                    -0.43245
                ],
                [
                    -0.56899,
                    4.78712,
                    -0.21651
                ],
                [
                    -0.11794,
                    -0.3673,
                    4.69719
                ]
            ],
            [
                [
                    -4.34823,
                    1.20207,
                    -0.39972
                ],
                [
                    1.19366,
                    -2.34134,
                    -0.31249
                ],
                [
                    -0.1956,
                    -0.30667,
                    -2.10146
                ]
            ],
            [
                [
                    -1.75532,
                    0.01912,
                    0.10579
                ],
                [
                    0.07444,
                    -3.77031,
                    2.08307
                ],
                [
                    -0.13533,
                    2.0876,
                    -3.48737
                ]
            ],
            [
                [
                    -5.24104,
                    0.0,
                    0.0
                ],
                [
                    0.0,
                    -2.10802,
                    -0.01654
                ],
                [
                    -0.0,
                    0.18594,
                    -1.94425
                ]
            ],
            [
                [
                    -5.24104,
                    -0.0,
                    0.0
                ],
                [
                    0.0,
                    -2.10802,
                    0.01654
                ],
                [
                    -0.0,
                    -0.18594,
                    -1.94425
                ]
            ],
            [
                [
                    -1.75533,
                    -0.01911,
                    -0.10577
                ],
                [
                    -0.07444,
                    -3.77031,
                    2.08307
                ],
                [
                    0.13533,
                    2.0876,
                    -3.48737
                ]
            ],
            [
                [
                    -2.31207,
                    -0.11819,
                    0.18465
                ],
                [
                    -0.36327,
                    -2.95121,
                    0.25208
                ],
                [
                    0.15941,
                    -0.13035,
                    -2.96006
                ]
            ],
            [
                [
                    -4.34823,
                    -1.20207,
                    -0.39972
                ],
                [
                    -1.19365,
                    -2.34134,
                    0.31249
                ],
                [
                    -0.1956,
                    0.30667,
                    -2.10146
                ]
            ],
            [
                [
                    -1.82076,
                    0.0539,
                    -0.24701
                ],
                [
                    0.00235,
                    -3.31358,
                    1.57328
                ],
                [
                    -0.23697,
                    1.6893,
                    -3.47452
                ]
            ],
            [
                [
                    -1.82076,
                    -0.0539,
                    0.247
                ],
                [
                    -0.00235,
                    -3.31358,
                    1.57328
                ],
                [
                    0.23697,
                    1.6893,
                    -3.47452
                ]
            ],
            [
                [
                    -1.75532,
                    -0.01912,
                    0.10579
                ],
                [
                    -0.07444,
                    -3.77031,
                    -2.08307
                ],
                [
                    -0.13533,
                    -2.0876,
                    -3.48737
                ]
            ],
            [
                [
                    -4.34825,
                    1.20206,
                    0.39971
                ],
                [
                    1.19365,
                    -2.34134,
                    0.31249
                ],
                [
                    0.1956,
                    0.30667,
                    -2.10146
                ]
            ],
            [
                [
                    -1.82076,
                    0.0539,
                    0.247
                ],
                [
                    0.00235,
                    -3.31359,
                    -1.57328
                ],
                [
                    0.23697,
                    -1.6893,
                    -3.47452
                ]
            ],
            [
                [
                    -2.31208,
                    -0.11818,
                    -0.18464
                ],
                [
                    -0.36326,
                    -2.95123,
                    -0.25207
                ],
                [
                    -0.15941,
                    0.13035,
                    -2.96006
                ]
            ],
            [
                [
                    -1.75533,
                    0.01911,
                    -0.10577
                ],
                [
                    0.07444,
                    -3.77031,
                    -2.08307
                ],
                [
                    0.13533,
                    -2.0876,
                    -3.48737
                ]
            ],
            [
                [
                    -2.31207,
                    0.11819,
                    0.18465
                ],
                [
                    0.36326,
                    -2.95123,
                    -0.25207
                ],
                [
                    0.15941,
                    0.13035,
                    -2.96006
                ]
            ],
            [
                [
                    -1.82076,
                    -0.0539,
                    -0.24701
                ],
                [
                    -0.00235,
                    -3.31359,
                    -1.57328
                ],
                [
                    -0.23697,
                    -1.6893,
                    -3.47452
                ]
            ],
            [
                [
                    -4.34825,
                    -1.20206,
                    0.39971
                ],
                [
                    -1.19366,
                    -2.34134,
                    -0.31249
                ],
                [
                    0.1956,
                    -0.30667,
                    -2.10146
                ]
            ],
            [
                [
                    -2.31208,
                    0.11818,
                    -0.18464
                ],
                [
                    0.36327,
                    -2.95121,
                    0.25208
                ],
                [
                    -0.15941,
                    -0.13035,
                    -2.96006
                ]
            ]
        ]
    },
    "band_gap": 3.0339000000000005,
    "is_direct": false,
    "formula": "CaTa2Bi2O9"
}