{
    "mp_id": "mp-558628",
    "nelements": 4,
    "nsites": 28,
    "elements": [
        "B",
        "K",
        "Li",
        "O"
    ],
    "structure": {
        "@module": "pymatgen.core.structure",
        "@class": "Structure",
        "charge": null,
        "lattice": {
            "matrix": [
                [
                    7.98902617,
                    0.0,
                    0.0
                ],
                [
                    0.0,
                    6.44453229,
                    0.0
                ],
                [
                    0.0,
                    0.0,
                    6.43281443
                ]
            ],
            "a": 7.98902617,
            "b": 6.44453229,
            "c": 6.43281443,
            "alpha": 90.0,
            "beta": 90.0,
            "gamma": 90.0,
            "volume": 331.19690611038635
        },
        "sites": [
            {
                "species": [
                    {
                        "element": "K",
                        "occu": 1
                    }
                ],
                "abc": [
                    0.99198607,
                    0.75,
                    0.39726029
                ],
                "xyz": [
                    7.925002673505452,
                    4.8333992175,
                    2.555501725977985
                ],
                "label": "K",
                "properties": {}
            },
            {
                "species": [
                    {
                        "element": "K",
                        "occu": 1
                    }
                ],
                "abc": [
                    0.49198607,
                    0.75,
                    0.10273971
                ],
                "xyz": [
                    3.9304895885054516,
                    4.8333992175,
                    0.6609054890220153
                ],
                "label": "K",
                "properties": {}
            },
            {
                "species": [
                    {
                        "element": "K",
                        "occu": 1
                    }
                ],
                "abc": [
                    0.50801393,
                    0.25,
                    0.89726029
                ],
                "xyz": [
                    4.058536581494548,
                    1.6111330725,
                    5.771908940977984
                ],
                "label": "K",
                "properties": {}
            },
            {
                "species": [
                    {
                        "element": "K",
                        "occu": 1
                    }
                ],
                "abc": [
                    0.00801393,
                    0.25,
                    0.60273971
                ],
                "xyz": [
                    0.06402349649454811,
                    1.6111330725,
                    3.877312704022015
                ],
                "label": "K",
                "properties": {}
            },
            {
                "species": [
                    {
                        "element": "Li",
                        "occu": 1
                    }
                ],
                "abc": [
                    0.85930466,
                    0.53982528,
                    0.96704037
                ],
                "xyz": [
                    6.8650074167429525,
                    3.4789214479182906,
                    6.220791246528538
                ],
                "label": "Li",
                "properties": {}
            },
            {
                "species": [
                    {
                        "element": "Li",
                        "occu": 1
                    }
                ],
                "abc": [
                    0.14069534,
                    0.46017472,
                    0.03295963
                ],
                "xyz": [
                    1.1240187532570478,
                    2.9656108420817087,
                    0.21202318347146087
                ],
                "label": "Li",
                "properties": {}
            },
            {
                "species": [
                    {
                        "element": "Li",
                        "occu": 1
                    }
                ],
                "abc": [
                    0.64069534,
                    0.03982528,
                    0.46704037
                ],
                "xyz": [
                    5.118531838257047,
                    0.2566553029182912,
                    3.004384031528539
                ],
                "label": "Li",
                "properties": {}
            },
            {
                "species": [
                    {
                        "element": "Li",
                        "occu": 1
                    }
                ],
                "abc": [
                    0.85930466,
                    0.96017472,
                    0.96704037
                ],
                "xyz": [
                    6.8650074167429525,
                    6.187876987081709,
                    6.220791246528538
                ],
                "label": "Li",
                "properties": {}
            },
            {
                "species": [
                    {
                        "element": "Li",
                        "occu": 1
                    }
                ],
                "abc": [
                    0.35930466,
                    0.96017472,
                    0.53295963
                ],
                "xyz": [
                    2.870494331742952,
                    6.187876987081709,
                    3.428430398471461
                ],
                "label": "Li",
                "properties": {}
            },
            {
                "species": [
                    {
                        "element": "Li",
                        "occu": 1
                    }
                ],
                "abc": [
                    0.64069534,
                    0.46017472,
                    0.46704037
                ],
                "xyz": [
                    5.118531838257047,
                    2.9656108420817087,
                    3.004384031528539
                ],
                "label": "Li",
                "properties": {}
            },
            {
                "species": [
                    {
                        "element": "Li",
                        "occu": 1
                    }
                ],
                "abc": [
                    0.14069534,
                    0.03982528,
                    0.03295963
                ],
                "xyz": [
                    1.1240187532570478,
                    0.2566553029182912,
                    0.21202318347146087
                ],
                "label": "Li",
                "properties": {}
            },
            {
                "species": [
                    {
                        "element": "Li",
                        "occu": 1
                    }
                ],
                "abc": [
                    0.35930466,
                    0.53982528,
                    0.53295963
                ],
                "xyz": [
                    2.870494331742952,
                    3.4789214479182906,
                    3.428430398471461
                ],
                "label": "Li",
                "properties": {}
            },
            {
                "species": [
                    {
                        "element": "B",
                        "occu": 1
                    }
                ],
                "abc": [
                    0.84857555,
                    0.25,
                    0.1740133
                ],
                "xyz": [
                    6.779292276172143,
                    1.6111330725,
                    1.119395267251919
                ],
                "label": "B",
                "properties": {}
            },
            {
                "species": [
                    {
                        "element": "B",
                        "occu": 1
                    }
                ],
                "abc": [
                    0.15142445,
                    0.75,
                    0.8259867
                ],
                "xyz": [
                    1.2097338938278563,
                    4.8333992175,
                    5.3134191627480805
                ],
                "label": "B",
                "properties": {}
            },
            {
                "species": [
                    {
                        "element": "B",
                        "occu": 1
                    }
                ],
                "abc": [
                    0.34857555,
                    0.25,
                    0.3259867
                ],
                "xyz": [
                    2.7847791911721433,
                    1.6111330725,
                    2.097011947748081
                ],
                "label": "B",
                "properties": {}
            },
            {
                "species": [
                    {
                        "element": "B",
                        "occu": 1
                    }
                ],
                "abc": [
                    0.65142445,
                    0.75,
                    0.6740133
                ],
                "xyz": [
                    5.2042469788278565,
                    4.8333992175,
                    4.3358024822519186
                ],
                "label": "B",
                "properties": {}
            },
            {
                "species": [
                    {
                        "element": "O",
                        "occu": 1
                    }
                ],
                "abc": [
                    0.7932517,
                    0.43942643,
                    0.24767824
                ],
                "xyz": [
                    6.337308590696989,
                    2.8318978172144242,
                    1.593268156269003
                ],
                "label": "O",
                "properties": {}
            },
            {
                "species": [
                    {
                        "element": "O",
                        "occu": 1
                    }
                ],
                "abc": [
                    0.2932517,
                    0.43942643,
                    0.25232176
                ],
                "xyz": [
                    2.342795505696989,
                    2.8318978172144242,
                    1.6231390587309968
                ],
                "label": "O",
                "properties": {}
            },
            {
                "species": [
                    {
                        "element": "O",
                        "occu": 1
                    }
                ],
                "abc": [
                    0.7067483,
                    0.93942643,
                    0.74767824
                ],
                "xyz": [
                    5.646230664303011,
                    6.0541639622144245,
                    4.8096753712690035
                ],
                "label": "O",
                "properties": {}
            },
            {
                "species": [
                    {
                        "element": "O",
                        "occu": 1
                    }
                ],
                "abc": [
                    0.53661445,
                    0.75,
                    0.50822531
                ],
                "xyz": [
                    4.287026884250156,
                    4.8333992175,
                    3.269319107859223
                ],
                "label": "O",
                "properties": {}
            },
            {
                "species": [
                    {
                        "element": "O",
                        "occu": 1
                    }
                ],
                "abc": [
                    0.46338555,
                    0.25,
                    0.49177469
                ],
                "xyz": [
                    3.701999285749843,
                    1.6111330725,
                    3.1634953221407764
                ],
                "label": "O",
                "properties": {}
            },
            {
                "species": [
                    {
                        "element": "O",
                        "occu": 1
                    }
                ],
                "abc": [
                    0.7932517,
                    0.06057357,
                    0.24767824
                ],
                "xyz": [
                    6.337308590696989,
                    0.3903683277855753,
                    1.593268156269003
                ],
                "label": "O",
                "properties": {}
            },
            {
                "species": [
                    {
                        "element": "O",
                        "occu": 1
                    }
                ],
                "abc": [
                    0.2067483,
                    0.93942643,
                    0.75232176
                ],
                "xyz": [
                    1.651717579303011,
                    6.0541639622144245,
                    4.839546273730996
                ],
                "label": "O",
                "properties": {}
            },
            {
                "species": [
                    {
                        "element": "O",
                        "occu": 1
                    }
                ],
                "abc": [
                    0.2067483,
                    0.56057357,
                    0.75232176
                ],
                "xyz": [
                    1.651717579303011,
                    3.612634472785575,
                    4.839546273730996
                ],
                "label": "O",
                "properties": {}
            },
            {
                "species": [
                    {
                        "element": "O",
                        "occu": 1
                    }
                ],
                "abc": [
                    0.03661445,
                    0.75,
                    0.99177469
                ],
                "xyz": [
                    0.29251379925015647,
                    4.8333992175,
                    6.379902537140776
                ],
                "label": "O",
                "properties": {}
            },
            {
                "species": [
                    {
                        "element": "O",
                        "occu": 1
                    }
                ],
                "abc": [
                    0.2932517,
                    0.06057357,
                    0.25232176
                ],
                "xyz": [
                    2.342795505696989,
                    0.3903683277855753,
                    1.6231390587309968
                ],
                "label": "O",
                "properties": {}
            },
            {
                "species": [
                    {
                        "element": "O",
                        "occu": 1
                    }
                ],
                "abc": [
                    0.96338555,
                    0.25,
                    0.00822531
                ],
                "xyz": [
                    7.6965123707498435,
                    1.6111330725,
                    0.05291189285922329
                ],
                "label": "O",
                "properties": {}
            },
            {
                "species": [
                    {
                        "element": "O",
                        "occu": 1
                    }
                ],
                "abc": [
                    0.7067483,
                    0.56057357,
                    0.74767824
                ],
                "xyz": [
                    5.646230664303011,
                    3.612634472785575,
                    4.8096753712690035
                ],
                "label": "O",
                "properties": {}
            }
        ]
    },
    "spacegroup": {
        "source": "spglib",
        "symbol": "Pnma",
        "number": 62,
        "point_group": "mmm",
        "crystal_system": "orthorhombic",
        "hall": "-P 2ac 2n"
    },
    "dielectric": {
        "epsilon_ionic": [
            [
                6.82190563,
                -1e-08,
                -1e-08
            ],
            [
                -1e-08,
                6.0321498,
                2e-08
            ],
            [
                -1e-08,
                2e-08,
                6.35615707
            ]
        ],
        "epsilon_ionic_avg": 6.403404166666668,
        "epsilon_ionic_eig": [
            6.82190563,
            6.356157070000003,
            6.032149800000001
        ],
        "epsilon_electronic": [
            [
                2.45142217,
                0.0,
                0.0
            ],
            [
                0.0,
                2.62212795,
                0.0
            ],
            [
                0.0,
                0.0,
                2.50093767
            ]
        ],
        "epsilon_electronic_avg": 2.5248292633333334,
        "epsilon_electronic_eig": [
            2.45142217,
            2.62212795,
            2.50093767
        ]
    },
    "phonon": {
        "lowest_freq": -0.13673507055530748,
        "frequency": [
            -0.13673507055530748,
            -0.10464877301126835,
            -0.025195977495069372,
            1.1084603293424935,
            1.2378300985654327,
            1.6282048458380494,
            1.853524290962097,
            2.3211536760584215,
            2.363162906263133,
            2.671975203963049,
            2.7385819136668212,
            2.770364814419884,
            3.8292695943292645,
            3.835079308368841,
            4.017855140876573,
            4.332706672836483,
            4.3330720781293905,
            4.348333895002959,
            4.824976630023428,
            5.050140292667301,
            5.1435423861778435,
            5.348326583836757,
            5.573114029797244,
            6.015684980973339,
            6.2199839316922665,
            6.220989488822268,
            6.312635475149282,
            6.72871087885172,
            7.229278146170946,
            7.715181032478651,
            7.716863590752455,
            7.781325350189568,
            8.157760536050784,
            8.188521975811087,
            8.473636296545262,
            8.79719058739979,
            8.9577882866222,
            9.280417187566949,
            9.380384999499062,
            9.864314815232984,
            10.960677441833496,
            11.45949627270612,
            11.568928773680653,
            11.683267538242063,
            12.431144627154683,
            12.866199900306288,
            12.959694377023396,
            13.29200577847214,
            13.347306918383339,
            13.76026844913895,
            14.111677247939516,
            14.751536242614346,
            14.857387179868006,
            15.239492626717901,
            16.16780825280948,
            16.297570823683863,
            16.38879566790748,
            16.6891645150728,
            16.80337209550711,
            17.120020169273374,
            17.585337936481814,
            17.740229023847505,
            18.07287761073839,
            18.468583921466475,
            19.257594332385914,
            19.297126015506194,
            19.3384597863705,
            20.17188831538254,
            22.291175957137725,
            22.304545050206173,
            22.52916903199246,
            22.588041956938582,
            26.727047946098065,
            26.893279086457273,
            27.010203437131732,
            27.01816669773507,
            35.4021591088705,
            35.9752575504699,
            36.46743453860558,
            36.6264562258197,
            37.667348379175095,
            38.13104692544308,
            38.81345793435265,
            39.196289968530245
        ]
    },
    "born_effective_charge": {
        "avg_abs_trace": 1.3653904761904758,
        "tensors": [
            [
                [
                    1.16836,
                    -0.0,
                    -0.03167
                ],
                [
                    2e-05,
                    1.15637,
                    1e-05
                ],
                [
                    0.05575,
                    -0.0,
                    1.31595
                ]
            ],
            [
                [
                    1.16836,
                    -0.0,
                    0.03167
                ],
                [
                    2e-05,
                    1.15637,
                    -1e-05
                ],
                [
                    -0.05567,
                    -0.0,
                    1.31594
                ]
            ],
            [
                [
                    1.16838,
                    -0.0,
                    0.03166
                ],
                [
                    -2e-05,
                    1.15637,
                    1e-05
                ],
                [
                    -0.05575,
                    -0.0,
                    1.31595
                ]
            ],
            [
                [
                    1.16838,
                    -0.0,
                    -0.03166
                ],
                [
                    -2e-05,
                    1.15637,
                    -1e-05
                ],
                [
                    0.05567,
                    -0.0,
                    1.31594
                ]
            ],
            [
                [
                    0.92042,
                    0.05931,
                    0.0873
                ],
                [
                    -0.00763,
                    0.98627,
                    -0.18896
                ],
                [
                    0.05989,
                    -0.18273,
                    0.90718
                ]
            ],
            [
                [
                    0.92041,
                    0.05931,
                    0.08729
                ],
                [
                    -0.00761,
                    0.98625,
                    -0.18895
                ],
                [
                    0.0599,
                    -0.18274,
                    0.90719
                ]
            ],
            [
                [
                    0.92041,
                    -0.05931,
                    -0.08729
                ],
                [
                    0.00763,
                    0.98627,
                    -0.18896
                ],
                [
                    -0.05989,
                    -0.18273,
                    0.90718
                ]
            ],
            [
                [
                    0.92042,
                    -0.05931,
                    0.0873
                ],
                [
                    0.00761,
                    0.98625,
                    0.18895
                ],
                [
                    0.05989,
                    0.18273,
                    0.90718
                ]
            ],
            [
                [
                    0.92042,
                    -0.05931,
                    -0.0873
                ],
                [
                    0.00761,
                    0.98625,
                    -0.18895
                ],
                [
                    -0.0599,
                    -0.18274,
                    0.90719
                ]
            ],
            [
                [
                    0.92041,
                    0.05931,
                    -0.08729
                ],
                [
                    -0.00761,
                    0.98625,
                    0.18895
                ],
                [
                    -0.05989,
                    0.18273,
                    0.90718
                ]
            ],
            [
                [
                    0.92041,
                    -0.05931,
                    0.08729
                ],
                [
                    0.00763,
                    0.98627,
                    0.18896
                ],
                [
                    0.0599,
                    0.18274,
                    0.90719
                ]
            ],
            [
                [
                    0.92042,
                    0.05931,
                    -0.0873
                ],
                [
                    -0.00763,
                    0.98627,
                    0.18896
                ],
                [
                    -0.0599,
                    0.18274,
                    0.90719
                ]
            ],
            [
                [
                    1.16276,
                    -0.0,
                    -1.0518
                ],
                [
                    5e-05,
                    2.50332,
                    -8e-05
                ],
                [
                    -1.04242,
                    -0.0,
                    1.40222
                ]
            ],
            [
                [
                    1.16271,
                    -0.0,
                    -1.05179
                ],
                [
                    -5e-05,
                    2.50332,
                    8e-05
                ],
                [
                    -1.04232,
                    -0.0,
                    1.40208
                ]
            ],
            [
                [
                    1.16276,
                    -0.0,
                    1.0518
                ],
                [
                    5e-05,
                    2.50332,
                    8e-05
                ],
                [
                    1.04232,
                    -0.0,
                    1.40208
                ]
            ],
            [
                [
                    1.16271,
                    -0.0,
                    1.05179
                ],
                [
                    -5e-05,
                    2.50332,
                    -8e-05
                ],
                [
                    1.04242,
                    -0.0,
                    1.40222
                ]
            ],
            [
                [
                    -1.30466,
                    0.23036,
                    0.26488
                ],
                [
                    0.26409,
                    -2.08171,
                    -0.30482
                ],
                [
                    0.25977,
                    -0.29867,
                    -1.40244
                ]
            ],
            [
                [
                    -1.30466,
                    0.23036,
                    -0.26488
                ],
                [
                    0.26409,
                    -2.08171,
                    0.30482
                ],
                [
                    -0.25996,
                    0.29879,
                    -1.40254
                ]
            ],
            [
                [
                    -1.30465,
                    -0.23036,
                    -0.26492
                ],
                [
                    -0.26409,
                    -2.08171,
                    -0.30482
                ],
                [
                    -0.25977,
                    -0.29867,
                    -1.40244
                ]
            ],
            [
                [
                    -1.56259,
                    -0.0,
                    -0.58255
                ],
                [
                    7e-05,
                    -1.46873,
                    6e-05
                ],
                [
                    -0.55787,
                    -0.0,
                    -1.72739
                ]
            ],
            [
                [
                    -1.56263,
                    -0.0,
                    -0.58242
                ],
                [
                    -7e-05,
                    -1.46873,
                    -6e-05
                ],
                [
                    -0.55783,
                    -0.0,
                    -1.72757
                ]
            ],
            [
                [
                    -1.30466,
                    -0.23036,
                    0.26488
                ],
                [
                    -0.2643,
                    -2.08177,
                    0.30504
                ],
                [
                    0.25977,
                    0.29867,
                    -1.40244
                ]
            ],
            [
                [
                    -1.30465,
                    -0.23036,
                    0.26492
                ],
                [
                    -0.26409,
                    -2.08171,
                    0.30482
                ],
                [
                    0.25996,
                    0.29879,
                    -1.40254
                ]
            ],
            [
                [
                    -1.30465,
                    0.23036,
                    0.26492
                ],
                [
                    0.2643,
                    -2.08177,
                    -0.30504
                ],
                [
                    0.25996,
                    -0.29879,
                    -1.40254
                ]
            ],
            [
                [
                    -1.56259,
                    -0.0,
                    0.58255
                ],
                [
                    7e-05,
                    -1.46873,
                    -6e-05
                ],
                [
                    0.55783,
                    -0.0,
                    -1.72757
                ]
            ],
            [
                [
                    -1.30466,
                    -0.23036,
                    -0.26488
                ],
                [
                    -0.2643,
                    -2.08177,
                    -0.30504
                ],
                [
                    -0.25996,
                    -0.29879,
                    -1.40254
                ]
            ],
            [
                [
                    -1.56263,
                    -0.0,
                    0.58242
                ],
                [
                    -7e-05,
                    -1.46873,
                    6e-05
                ],
                [
                    0.55787,
                    -0.0,
                    -1.72739
                ]
            ],
            [
                [
                    -1.30465,
                    0.23036,
                    -0.26492
                ],
                [
                    0.2643,
                    -2.08177,
                    0.30504
                ],
                [
                    -0.25977,
                    0.29867,
                    -1.40244
                ]
            ]
        ]
    },
    "band_gap": 4.1114,
    "is_direct": false,
    "formula": "KLi2BO3"
}