{
    "mp_id": "mp-557577",
    "nelements": 4,
    "nsites": 26,
    "elements": [
        "K",
        "O",
        "Sc",
        "Si"
    ],
    "structure": {
        "@module": "pymatgen.core.structure",
        "@class": "Structure",
        "charge": null,
        "lattice": {
            "matrix": [
                [
                    5.62237968,
                    0.0,
                    0.0
                ],
                [
                    -2.81118984,
                    4.86912344,
                    0.0
                ],
                [
                    0.0,
                    0.0,
                    13.72160456
                ]
            ],
            "a": 5.62237968,
            "b": 5.622379513202276,
            "c": 13.72160456,
            "alpha": 90.0,
            "beta": 90.0,
            "gamma": 120.00000098136817,
            "volume": 375.6434791777151
        },
        "sites": [
            {
                "species": [
                    {
                        "element": "K",
                        "occu": 1
                    }
                ],
                "abc": [
                    0.333333,
                    0.666667,
                    0.40820379
                ],
                "xyz": [
                    -2.811189840024042e-06,
                    3.24608391637448,
                    5.601210986273283
                ],
                "label": "K",
                "properties": {}
            },
            {
                "species": [
                    {
                        "element": "K",
                        "occu": 1
                    }
                ],
                "abc": [
                    0.0,
                    0.0,
                    0.25
                ],
                "xyz": [
                    0.0,
                    0.0,
                    3.43040114
                ],
                "label": "K",
                "properties": {}
            },
            {
                "species": [
                    {
                        "element": "K",
                        "occu": 1
                    }
                ],
                "abc": [
                    0.666667,
                    0.333333,
                    0.59179621
                ],
                "xyz": [
                    2.81119265118984,
                    1.62303952362552,
                    8.120393573726718
                ],
                "label": "K",
                "properties": {}
            },
            {
                "species": [
                    {
                        "element": "K",
                        "occu": 1
                    }
                ],
                "abc": [
                    0.333333,
                    0.666667,
                    0.09179621
                ],
                "xyz": [
                    -2.811189840024042e-06,
                    3.24608391637448,
                    1.2595912937267175
                ],
                "label": "K",
                "properties": {}
            },
            {
                "species": [
                    {
                        "element": "K",
                        "occu": 1
                    }
                ],
                "abc": [
                    0.666667,
                    0.333333,
                    0.90820379
                ],
                "xyz": [
                    2.81119265118984,
                    1.62303952362552,
                    12.462013266273281
                ],
                "label": "K",
                "properties": {}
            },
            {
                "species": [
                    {
                        "element": "K",
                        "occu": 1
                    }
                ],
                "abc": [
                    0.0,
                    0.0,
                    0.75
                ],
                "xyz": [
                    0.0,
                    0.0,
                    10.291203419999999
                ],
                "label": "K",
                "properties": {}
            },
            {
                "species": [
                    {
                        "element": "Sc",
                        "occu": 1
                    }
                ],
                "abc": [
                    0.0,
                    0.0,
                    0.5
                ],
                "xyz": [
                    0.0,
                    0.0,
                    6.86080228
                ],
                "label": "Sc",
                "properties": {}
            },
            {
                "species": [
                    {
                        "element": "Sc",
                        "occu": 1
                    }
                ],
                "abc": [
                    0.0,
                    0.0,
                    0.0
                ],
                "xyz": [
                    0.0,
                    0.0,
                    0.0
                ],
                "label": "Sc",
                "properties": {}
            },
            {
                "species": [
                    {
                        "element": "Si",
                        "occu": 1
                    }
                ],
                "abc": [
                    0.333333,
                    0.666667,
                    0.62859567
                ],
                "xyz": [
                    -2.811189840024042e-06,
                    3.24608391637448,
                    8.625341211868255
                ],
                "label": "Si",
                "properties": {}
            },
            {
                "species": [
                    {
                        "element": "Si",
                        "occu": 1
                    }
                ],
                "abc": [
                    0.666667,
                    0.333333,
                    0.37140433
                ],
                "xyz": [
                    2.81119265118984,
                    1.62303952362552,
                    5.096263348131744
                ],
                "label": "Si",
                "properties": {}
            },
            {
                "species": [
                    {
                        "element": "Si",
                        "occu": 1
                    }
                ],
                "abc": [
                    0.666667,
                    0.333333,
                    0.12859567
                ],
                "xyz": [
                    2.81119265118984,
                    1.62303952362552,
                    1.7645389318682552
                ],
                "label": "Si",
                "properties": {}
            },
            {
                "species": [
                    {
                        "element": "Si",
                        "occu": 1
                    }
                ],
                "abc": [
                    0.333333,
                    0.666667,
                    0.87140433
                ],
                "xyz": [
                    -2.811189840024042e-06,
                    3.24608391637448,
                    11.957065628131744
                ],
                "label": "Si",
                "properties": {}
            },
            {
                "species": [
                    {
                        "element": "O",
                        "occu": 1
                    }
                ],
                "abc": [
                    0.34805421,
                    0.17402711,
                    0.40846764
                ],
                "xyz": [
                    1.4676696743258901,
                    0.8473594804964585,
                    5.6048314316364385
                ],
                "label": "O",
                "properties": {}
            },
            {
                "species": [
                    {
                        "element": "O",
                        "occu": 1
                    }
                ],
                "abc": [
                    0.82597289,
                    0.17402711,
                    0.09153236
                ],
                "xyz": [
                    4.154709949450313,
                    0.8473594804964585,
                    1.2559708483635614
                ],
                "label": "O",
                "properties": {}
            },
            {
                "species": [
                    {
                        "element": "O",
                        "occu": 1
                    }
                ],
                "abc": [
                    0.17402711,
                    0.34805421,
                    0.59153236
                ],
                "xyz": [
                    2.811189858675789e-08,
                    1.6947189123016824,
                    8.116773128363562
                ],
                "label": "O",
                "properties": {}
            },
            {
                "species": [
                    {
                        "element": "O",
                        "occu": 1
                    }
                ],
                "abc": [
                    0.17402711,
                    0.82597289,
                    0.90846764
                ],
                "xyz": [
                    -1.3435201094503126,
                    4.0217639595035415,
                    12.465633711636437
                ],
                "label": "O",
                "properties": {}
            },
            {
                "species": [
                    {
                        "element": "O",
                        "occu": 1
                    }
                ],
                "abc": [
                    0.65194579,
                    0.82597289,
                    0.90846764
                ],
                "xyz": [
                    1.3435201656741094,
                    4.0217639595035415,
                    12.465633711636437
                ],
                "label": "O",
                "properties": {}
            },
            {
                "species": [
                    {
                        "element": "O",
                        "occu": 1
                    }
                ],
                "abc": [
                    0.65194579,
                    0.82597289,
                    0.59153236
                ],
                "xyz": [
                    1.3435201656741094,
                    4.0217639595035415,
                    8.116773128363562
                ],
                "label": "O",
                "properties": {}
            },
            {
                "species": [
                    {
                        "element": "O",
                        "occu": 1
                    }
                ],
                "abc": [
                    0.34805421,
                    0.17402711,
                    0.09153236
                ],
                "xyz": [
                    1.4676696743258901,
                    0.8473594804964585,
                    1.2559708483635614
                ],
                "label": "O",
                "properties": {}
            },
            {
                "species": [
                    {
                        "element": "O",
                        "occu": 1
                    }
                ],
                "abc": [
                    0.17402711,
                    0.82597289,
                    0.59153236
                ],
                "xyz": [
                    -1.3435201094503126,
                    4.0217639595035415,
                    8.116773128363562
                ],
                "label": "O",
                "properties": {}
            },
            {
                "species": [
                    {
                        "element": "O",
                        "occu": 1
                    }
                ],
                "abc": [
                    0.82597289,
                    0.17402711,
                    0.40846764
                ],
                "xyz": [
                    4.154709949450313,
                    0.8473594804964585,
                    5.6048314316364385
                ],
                "label": "O",
                "properties": {}
            },
            {
                "species": [
                    {
                        "element": "O",
                        "occu": 1
                    }
                ],
                "abc": [
                    0.17402711,
                    0.34805421,
                    0.90846764
                ],
                "xyz": [
                    2.811189858675789e-08,
                    1.6947189123016824,
                    12.465633711636437
                ],
                "label": "O",
                "properties": {}
            },
            {
                "species": [
                    {
                        "element": "O",
                        "occu": 1
                    }
                ],
                "abc": [
                    0.82597289,
                    0.65194579,
                    0.09153236
                ],
                "xyz": [
                    2.8111898118881014,
                    3.1744045276983175,
                    1.2559708483635614
                ],
                "label": "O",
                "properties": {}
            },
            {
                "species": [
                    {
                        "element": "O",
                        "occu": 1
                    }
                ],
                "abc": [
                    0.82597289,
                    0.65194579,
                    0.40846764
                ],
                "xyz": [
                    2.8111898118881014,
                    3.1744045276983175,
                    5.6048314316364385
                ],
                "label": "O",
                "properties": {}
            },
            {
                "species": [
                    {
                        "element": "O",
                        "occu": 1
                    }
                ],
                "abc": [
                    0.666667,
                    0.333333,
                    0.25
                ],
                "xyz": [
                    2.81119265118984,
                    1.62303952362552,
                    3.43040114
                ],
                "label": "O",
                "properties": {}
            },
            {
                "species": [
                    {
                        "element": "O",
                        "occu": 1
                    }
                ],
                "abc": [
                    0.333333,
                    0.666667,
                    0.75
                ],
                "xyz": [
                    -2.811189840024042e-06,
                    3.24608391637448,
                    10.291203419999999
                ],
                "label": "O",
                "properties": {}
            }
        ]
    },
    "spacegroup": {
        "source": "spglib",
        "symbol": "P6_3/mmc",
        "number": 194,
        "point_group": "6/mmm",
        "crystal_system": "hexagonal",
        "hall": "-P 6c 2c"
    },
    "dielectric": {
        "epsilon_ionic": [
            [
                6.95346647,
                -0.0,
                0.0
            ],
            [
                -0.0,
                6.95328567,
                1e-08
            ],
            [
                0.0,
                1e-08,
                4.79712418
            ]
        ],
        "epsilon_ionic_avg": 6.234625439999999,
        "epsilon_ionic_eig": [
            4.79712418,
            6.95328567,
            6.95346647
        ],
        "epsilon_electronic": [
            [
                3.00560019,
                0.0,
                0.0
            ],
            [
                0.0,
                3.0056003,
                0.0
            ],
            [
                0.0,
                0.0,
                2.90098461
            ]
        ],
        "epsilon_electronic_avg": 2.9707283666666666,
        "epsilon_electronic_eig": [
            3.00560019,
            3.0056003,
            2.90098461
        ]
    },
    "phonon": {
        "lowest_freq": -0.08105687535708776,
        "frequency": [
            -0.08105687535708776,
            -0.08105687384950354,
            -0.030584716267269323,
            1.010858824827518,
            1.0108588393340026,
            2.0618863649497046,
            2.061886400509394,
            2.9808590283810497,
            2.980859077574949,
            3.362700504256634,
            3.3627005551324376,
            3.701037883562111,
            3.8332536663923893,
            3.8332537269623757,
            4.041776808160499,
            4.148083955987458,
            4.2025828207670175,
            4.277869867676506,
            4.289102316802444,
            4.374906710168779,
            4.374906788378488,
            4.601143456258536,
            4.601143530622699,
            5.5035425158648,
            5.541264283642225,
            5.541264371853187,
            5.558908333628647,
            5.5589084435423715,
            5.630444827197645,
            5.630444935714883,
            5.7714789429774065,
            5.778846732644265,
            5.842379017182772,
            5.871515368314004,
            5.871515472375781,
            6.974068115489914,
            7.803537229029603,
            8.403813341884803,
            8.403813429130958,
            8.770918125375388,
            8.77091826469953,
            9.524130157347356,
            9.524130234330805,
            10.163277011167535,
            10.163277059262287,
            10.231511168798766,
            10.231511216572772,
            10.473456848445009,
            11.09612412290078,
            11.096124177965082,
            11.262360433562778,
            13.14896536397992,
            13.62011611844922,
            14.027339563048487,
            14.02733965887569,
            14.285053121646516,
            14.285053241408121,
            14.598388130588063,
            14.598388264520729,
            14.86510707620677,
            14.908150342246493,
            14.908150489790026,
            18.479684440833957,
            18.671026412045613,
            25.403194907771734,
            26.752118041567936,
            26.75211840699714,
            26.767469748554856,
            26.76747011377448,
            26.77461477342888,
            26.77461509291077,
            26.78056072095488,
            26.780561040365836,
            27.583372043493384,
            28.0918883109357,
            28.45780363115137,
            30.38553458734922,
            32.101316805264084
        ]
    },
    "born_effective_charge": {
        "avg_abs_trace": 2.212398205128205,
        "tensors": [
            [
                [
                    1.25596,
                    -2e-05,
                    -1e-05
                ],
                [
                    -0.0,
                    1.25602,
                    -2e-05
                ],
                [
                    -0.0,
                    -0.0,
                    0.90147
                ]
            ],
            [
                [
                    1.01247,
                    -1e-05,
                    -0.0
                ],
                [
                    -0.0,
                    1.01253,
                    -0.0
                ],
                [
                    -0.0,
                    -0.0,
                    1.54434
                ]
            ],
            [
                [
                    1.25596,
                    2e-05,
                    1e-05
                ],
                [
                    -0.0,
                    1.25602,
                    3e-05
                ],
                [
                    -0.0,
                    -0.0,
                    0.90191
                ]
            ],
            [
                [
                    1.25596,
                    -2e-05,
                    1e-05
                ],
                [
                    -0.0,
                    1.25602,
                    2e-05
                ],
                [
                    -0.0,
                    -0.0,
                    0.90191
                ]
            ],
            [
                [
                    1.25596,
                    2e-05,
                    -1e-05
                ],
                [
                    -0.0,
                    1.25602,
                    -3e-05
                ],
                [
                    -0.0,
                    -0.0,
                    0.90147
                ]
            ],
            [
                [
                    1.01247,
                    1e-05,
                    -0.0
                ],
                [
                    -0.0,
                    1.01252,
                    -0.0
                ],
                [
                    -0.0,
                    -0.0,
                    1.54434
                ]
            ],
            [
                [
                    4.4281,
                    -0.0,
                    -0.0
                ],
                [
                    -0.0,
                    4.42811,
                    -0.00017
                ],
                [
                    -0.0,
                    -0.0,
                    3.70575
                ]
            ],
            [
                [
                    4.4281,
                    -0.0,
                    -0.0
                ],
                [
                    -0.0,
                    4.42811,
                    0.00017
                ],
                [
                    -0.0,
                    -0.0,
                    3.70575
                ]
            ],
            [
                [
                    3.25375,
                    5e-05,
                    -1e-05
                ],
                [
                    -0.0,
                    3.25374,
                    -5e-05
                ],
                [
                    -0.0,
                    -0.0,
                    3.58402
                ]
            ],
            [
                [
                    3.25375,
                    -5e-05,
                    1e-05
                ],
                [
                    -0.0,
                    3.25381,
                    -4e-05
                ],
                [
                    -0.0,
                    -0.0,
                    3.58407
                ]
            ],
            [
                [
                    3.25375,
                    -5e-05,
                    -1e-05
                ],
                [
                    -0.0,
                    3.25381,
                    4e-05
                ],
                [
                    -0.0,
                    -0.0,
                    3.58402
                ]
            ],
            [
                [
                    3.25375,
                    5e-05,
                    1e-05
                ],
                [
                    -0.0,
                    3.25374,
                    5e-05
                ],
                [
                    -0.0,
                    -0.0,
                    3.58407
                ]
            ],
            [
                [
                    -2.59416,
                    -0.66381,
                    0.66837
                ],
                [
                    -0.66392,
                    -1.82764,
                    0.3859
                ],
                [
                    0.56347,
                    0.32532,
                    -1.72359
                ]
            ],
            [
                [
                    -2.59407,
                    0.66386,
                    0.66835
                ],
                [
                    0.66392,
                    -1.82764,
                    -0.3859
                ],
                [
                    0.56357,
                    -0.32538,
                    -1.72347
                ]
            ],
            [
                [
                    -1.44409,
                    -3e-05,
                    4e-05
                ],
                [
                    -0.0,
                    -2.97747,
                    -0.77172
                ],
                [
                    -0.0,
                    -0.65075,
                    -1.72347
                ]
            ],
            [
                [
                    -2.59416,
                    0.66381,
                    0.66837
                ],
                [
                    0.66384,
                    -1.82754,
                    -0.38593
                ],
                [
                    0.56347,
                    -0.32532,
                    -1.72359
                ]
            ],
            [
                [
                    -2.59407,
                    -0.66386,
                    -0.66835
                ],
                [
                    -0.66384,
                    -1.82754,
                    -0.38593
                ],
                [
                    -0.56347,
                    -0.32532,
                    -1.72359
                ]
            ],
            [
                [
                    -2.59407,
                    -0.66386,
                    0.66835
                ],
                [
                    -0.66384,
                    -1.82754,
                    0.38593
                ],
                [
                    0.56357,
                    0.32538,
                    -1.72347
                ]
            ],
            [
                [
                    -2.59416,
                    -0.66381,
                    -0.66837
                ],
                [
                    -0.66392,
                    -1.82764,
                    -0.3859
                ],
                [
                    -0.56357,
                    -0.32538,
                    -1.72347
                ]
            ],
            [
                [
                    -2.59416,
                    0.66381,
                    -0.66837
                ],
                [
                    0.66384,
                    -1.82754,
                    0.38593
                ],
                [
                    -0.56357,
                    0.32538,
                    -1.72347
                ]
            ],
            [
                [
                    -2.59407,
                    0.66386,
                    -0.66835
                ],
                [
                    0.66392,
                    -1.82764,
                    0.3859
                ],
                [
                    -0.56347,
                    0.32532,
                    -1.72359
                ]
            ],
            [
                [
                    -1.44409,
                    -3e-05,
                    -4e-05
                ],
                [
                    -0.0,
                    -2.97747,
                    0.77172
                ],
                [
                    0.0,
                    0.65064,
                    -1.72359
                ]
            ],
            [
                [
                    -1.44409,
                    3e-05,
                    4e-05
                ],
                [
                    0.0,
                    -2.97734,
                    0.77174
                ],
                [
                    0.0,
                    0.65075,
                    -1.72347
                ]
            ],
            [
                [
                    -1.44409,
                    3e-05,
                    -4e-05
                ],
                [
                    0.0,
                    -2.97734,
                    -0.77174
                ],
                [
                    -0.0,
                    -0.65064,
                    -1.72359
                ]
            ],
            [
                [
                    -1.19533,
                    2e-05,
                    -0.0
                ],
                [
                    -0.0,
                    -1.19508,
                    -0.0
                ],
                [
                    -0.0,
                    -0.0,
                    -3.88037
                ]
            ],
            [
                [
                    -1.19533,
                    -2e-05,
                    -0.0
                ],
                [
                    -0.0,
                    -1.19505,
                    -0.0
                ],
                [
                    -0.0,
                    -0.0,
                    -3.88037
                ]
            ]
        ]
    },
    "band_gap": 3.6516,
    "is_direct": false,
    "formula": "K3ScSi2O7"
}