{
    "mp_id": "mp-557012",
    "nelements": 4,
    "nsites": 24,
    "elements": [
        "B",
        "Li",
        "O",
        "Sc"
    ],
    "structure": {
        "@module": "pymatgen.core.structure",
        "@class": "Structure",
        "charge": null,
        "lattice": {
            "matrix": [
                [
                    4.77436295,
                    0.0,
                    -0.00078922
                ],
                [
                    0.0,
                    5.89763829,
                    0.0
                ],
                [
                    -4.68982479,
                    0.0,
                    8.14171127
                ]
            ],
            "a": 4.774363015230504,
            "b": 5.89763829,
            "c": 9.395845835524526,
            "alpha": 90.0,
            "beta": 119.95246579279856,
            "gamma": 90.0,
            "volume": 229.2281272354549
        },
        "sites": [
            {
                "species": [
                    {
                        "element": "Li",
                        "occu": 1
                    }
                ],
                "abc": [
                    0.31241061,
                    0.75049351,
                    0.7968009
                ],
                "xyz": [
                    -2.245294971943412,
                    4.426139260972498,
                    6.487076306774519
                ],
                "label": "Li",
                "properties": {}
            },
            {
                "species": [
                    {
                        "element": "Li",
                        "occu": 1
                    }
                ],
                "abc": [
                    0.31241061,
                    0.74950649,
                    0.2968009
                ],
                "xyz": [
                    0.0996174230565885,
                    4.420318174027502,
                    2.4162206717745187
                ],
                "label": "Li",
                "properties": {}
            },
            {
                "species": [
                    {
                        "element": "Li",
                        "occu": 1
                    }
                ],
                "abc": [
                    0.68758939,
                    0.25049351,
                    0.7031991
                ],
                "xyz": [
                    -0.015079263056588577,
                    1.4773201159724978,
                    5.724701378225481
                ],
                "label": "Li",
                "properties": {}
            },
            {
                "species": [
                    {
                        "element": "Li",
                        "occu": 1
                    }
                ],
                "abc": [
                    0.68758939,
                    0.24950649,
                    0.2031991
                ],
                "xyz": [
                    2.3298331319434116,
                    1.471499029027502,
                    1.6538457432254812
                ],
                "label": "Li",
                "properties": {}
            },
            {
                "species": [
                    {
                        "element": "Li",
                        "occu": 1
                    }
                ],
                "abc": [
                    0.0,
                    0.5,
                    0.0
                ],
                "xyz": [
                    0.0,
                    2.948819145,
                    0.0
                ],
                "label": "Li",
                "properties": {}
            },
            {
                "species": [
                    {
                        "element": "Li",
                        "occu": 1
                    }
                ],
                "abc": [
                    0.0,
                    0.0,
                    0.5
                ],
                "xyz": [
                    -2.344912395,
                    0.0,
                    4.070855635
                ],
                "label": "Li",
                "properties": {}
            },
            {
                "species": [
                    {
                        "element": "Sc",
                        "occu": 1
                    }
                ],
                "abc": [
                    0.0,
                    0.5,
                    0.5
                ],
                "xyz": [
                    -2.344912395,
                    2.948819145,
                    4.070855635
                ],
                "label": "Sc",
                "properties": {}
            },
            {
                "species": [
                    {
                        "element": "Sc",
                        "occu": 1
                    }
                ],
                "abc": [
                    0.0,
                    0.0,
                    0.0
                ],
                "xyz": [
                    0.0,
                    0.0,
                    0.0
                ],
                "label": "Sc",
                "properties": {}
            },
            {
                "species": [
                    {
                        "element": "B",
                        "occu": 1
                    }
                ],
                "abc": [
                    0.39074696,
                    0.19385038,
                    0.37529716
                ],
                "xyz": [
                    0.10548988406453552,
                    1.14325942361905,
                    3.055252731855222
                ],
                "label": "B",
                "properties": {}
            },
            {
                "species": [
                    {
                        "element": "B",
                        "occu": 1
                    }
                ],
                "abc": [
                    0.60925304,
                    0.69385038,
                    0.12470284
                ],
                "xyz": [
                    2.323960670935465,
                    4.0920785686190495,
                    1.0148136831447778
                ],
                "label": "B",
                "properties": {}
            },
            {
                "species": [
                    {
                        "element": "B",
                        "occu": 1
                    }
                ],
                "abc": [
                    0.60925304,
                    0.80614962,
                    0.62470284
                ],
                "xyz": [
                    -0.02095172406453516,
                    4.75437886638095,
                    5.085669318144777
                ],
                "label": "B",
                "properties": {}
            },
            {
                "species": [
                    {
                        "element": "B",
                        "occu": 1
                    }
                ],
                "abc": [
                    0.39074696,
                    0.30614962,
                    0.87529716
                ],
                "xyz": [
                    -2.239422510935465,
                    1.8055597213809498,
                    7.126108366855223
                ],
                "label": "B",
                "properties": {}
            },
            {
                "species": [
                    {
                        "element": "O",
                        "occu": 1
                    }
                ],
                "abc": [
                    0.36771666,
                    0.41625285,
                    0.73934517
                ],
                "xyz": [
                    -1.7117865090310174,
                    2.4549087464816264,
                    6.019244693666661
                ],
                "label": "O",
                "properties": {}
            },
            {
                "species": [
                    {
                        "element": "O",
                        "occu": 1
                    }
                ],
                "abc": [
                    0.36771666,
                    0.08374715,
                    0.23934517
                ],
                "xyz": [
                    0.6331258859689828,
                    0.49391039851837354,
                    1.9483890586666608
                ],
                "label": "O",
                "properties": {}
            },
            {
                "species": [
                    {
                        "element": "O",
                        "occu": 1
                    }
                ],
                "abc": [
                    0.30468737,
                    0.74791383,
                    0.4968362
                ],
                "xyz": [
                    -0.8753866366684566,
                    4.410925241428551,
                    4.044856423517823
                ],
                "label": "O",
                "properties": {}
            },
            {
                "species": [
                    {
                        "element": "O",
                        "occu": 1
                    }
                ],
                "abc": [
                    0.69531263,
                    0.24791383,
                    0.0031638
                ],
                "xyz": [
                    3.3048371916684567,
                    1.4621060964285506,
                    0.0252099914821774
                ],
                "label": "O",
                "properties": {}
            },
            {
                "species": [
                    {
                        "element": "O",
                        "occu": 1
                    }
                ],
                "abc": [
                    0.87659659,
                    0.76272589,
                    0.60934276
                ],
                "xyz": [
                    1.3274794999373203,
                    4.498281413638328,
                    4.960400988824145
                ],
                "label": "O",
                "properties": {}
            },
            {
                "species": [
                    {
                        "element": "O",
                        "occu": 1
                    }
                ],
                "abc": [
                    0.63228334,
                    0.58374715,
                    0.26065483
                ],
                "xyz": [
                    1.796324669031017,
                    3.4427295435183733,
                    2.1216773563333393
                ],
                "label": "O",
                "properties": {}
            },
            {
                "species": [
                    {
                        "element": "O",
                        "occu": 1
                    }
                ],
                "abc": [
                    0.69531263,
                    0.25208617,
                    0.5031638
                ],
                "xyz": [
                    0.9599247966684561,
                    1.4867130485714493,
                    4.0960656264821775
                ],
                "label": "O",
                "properties": {}
            },
            {
                "species": [
                    {
                        "element": "O",
                        "occu": 1
                    }
                ],
                "abc": [
                    0.30468737,
                    0.75208617,
                    0.9968362
                ],
                "xyz": [
                    -3.220299031668456,
                    4.435532193571449,
                    8.115712058517824
                ],
                "label": "O",
                "properties": {}
            },
            {
                "species": [
                    {
                        "element": "O",
                        "occu": 1
                    }
                ],
                "abc": [
                    0.63228334,
                    0.91625285,
                    0.76065483
                ],
                "xyz": [
                    -0.5485877259689831,
                    5.403727891481626,
                    6.19253299133334
                ],
                "label": "O",
                "properties": {}
            },
            {
                "species": [
                    {
                        "element": "O",
                        "occu": 1
                    }
                ],
                "abc": [
                    0.87659659,
                    0.73727411,
                    0.10934276
                ],
                "xyz": [
                    3.6723918949373204,
                    4.348176021361672,
                    0.8895453538241453
                ],
                "label": "O",
                "properties": {}
            },
            {
                "species": [
                    {
                        "element": "O",
                        "occu": 1
                    }
                ],
                "abc": [
                    0.12340341,
                    0.26272589,
                    0.89065724
                ],
                "xyz": [
                    -3.5878537349373207,
                    1.5494622686383281,
                    7.251376696175854
                ],
                "label": "O",
                "properties": {}
            },
            {
                "species": [
                    {
                        "element": "O",
                        "occu": 1
                    }
                ],
                "abc": [
                    0.12340341,
                    0.23727411,
                    0.39065724
                ],
                "xyz": [
                    -1.2429413399373201,
                    1.399356876361672,
                    3.1805210611758548
                ],
                "label": "O",
                "properties": {}
            }
        ]
    },
    "spacegroup": {
        "source": "spglib",
        "symbol": "P2_1/c",
        "number": 14,
        "point_group": "2/m",
        "crystal_system": "monoclinic",
        "hall": "-P 2ybc"
    },
    "dielectric": {
        "epsilon_ionic": [
            [
                6.46896824,
                0.0,
                1.82043043
            ],
            [
                0.0,
                6.37575111,
                -1e-08
            ],
            [
                1.82043043,
                -1e-08,
                7.42220247
            ]
        ],
        "epsilon_ionic_avg": 6.755640606666666,
        "epsilon_ionic_eig": [
            8.82737461652237,
            5.063796093477628,
            6.37575111
        ],
        "epsilon_electronic": [
            [
                3.25165854,
                0.0,
                0.03940307
            ],
            [
                0.0,
                3.06430034,
                0.0
            ],
            [
                0.03940431,
                0.0,
                3.24205702
            ]
        ],
        "epsilon_electronic_avg": 3.1860053,
        "epsilon_electronic_eig": [
            3.2865528436957456,
            3.2071627163042544,
            3.06430034
        ]
    },
    "phonon": {
        "lowest_freq": -0.09137972250345018,
        "frequency": [
            -0.09137972250345018,
            -0.048466168389236466,
            -0.024121013777045525,
            3.2715693399067005,
            3.468894876591717,
            4.204983187659408,
            4.452060631224399,
            4.544388185856715,
            5.167394643092285,
            5.365268050095589,
            5.416445983492558,
            6.315255618888698,
            6.581037859293827,
            6.924409660841765,
            7.66656204003945,
            7.684981604807478,
            7.707320405531879,
            7.744163295621424,
            8.34245090427664,
            8.528032470918665,
            8.726488647514575,
            8.748847549735377,
            8.996403082185576,
            9.20767093893257,
            9.320517659636192,
            9.484328960367346,
            9.487642795081943,
            9.79192796138241,
            9.81817213917387,
            10.057648227849587,
            10.06652424621418,
            10.189182671855752,
            10.278662834887339,
            11.277559855097468,
            11.30626757751371,
            11.425610536858029,
            11.871701573259047,
            12.33355680223948,
            13.177135560050072,
            13.192410812498894,
            13.232826333041489,
            13.50590405585885,
            13.891212774938426,
            14.96842612451292,
            15.666241605618398,
            15.754594181077126,
            15.856273057146923,
            16.832681753963094,
            17.582198039974646,
            17.62453164434016,
            17.760386108960603,
            17.85820464763814,
            18.65878892987575,
            19.05016316071222,
            19.460384627875705,
            19.689151790285692,
            20.686767211161765,
            20.86595160371503,
            21.508882081380865,
            21.951879863916556,
            27.787843817791263,
            28.07282008452641,
            28.250572761730407,
            28.271088581117258,
            35.598275623145526,
            35.720530542448735,
            36.522543319359265,
            36.82936801066369,
            36.88643689866366,
            37.04869967562012,
            37.50969974831993,
            39.705224577508076
        ]
    },
    "born_effective_charge": {
        "avg_abs_trace": 1.9388352777777778,
        "tensors": [
            [
                [
                    1.0037,
                    0.0697,
                    -0.02069
                ],
                [
                    0.01741,
                    0.96923,
                    0.1192
                ],
                [
                    -0.01789,
                    0.03639,
                    1.04892
                ]
            ],
            [
                [
                    1.0037,
                    -0.0697,
                    -0.02069
                ],
                [
                    -0.01742,
                    0.96922,
                    -0.11917
                ],
                [
                    -0.01789,
                    -0.03639,
                    1.04892
                ]
            ],
            [
                [
                    1.0037,
                    -0.0697,
                    -0.02069
                ],
                [
                    -0.01741,
                    0.96923,
                    -0.1192
                ],
                [
                    -0.01789,
                    -0.03639,
                    1.04892
                ]
            ],
            [
                [
                    1.0037,
                    0.0697,
                    -0.02069
                ],
                [
                    0.01742,
                    0.96922,
                    0.11917
                ],
                [
                    -0.01789,
                    0.03639,
                    1.04892
                ]
            ],
            [
                [
                    1.12508,
                    -0.03995,
                    0.00362
                ],
                [
                    0.03692,
                    1.2117,
                    0.17203
                ],
                [
                    0.09491,
                    0.12836,
                    0.95992
                ]
            ],
            [
                [
                    1.12508,
                    0.03995,
                    0.00362
                ],
                [
                    -0.03692,
                    1.2117,
                    -0.17203
                ],
                [
                    0.09491,
                    -0.12836,
                    0.95992
                ]
            ],
            [
                [
                    3.90966,
                    0.05955,
                    -0.35234
                ],
                [
                    0.14726,
                    4.00531,
                    -0.21242
                ],
                [
                    0.56868,
                    0.4734,
                    4.07124
                ]
            ],
            [
                [
                    3.90966,
                    -0.05955,
                    -0.35234
                ],
                [
                    -0.14726,
                    4.00531,
                    0.21242
                ],
                [
                    0.56868,
                    -0.4734,
                    4.07124
                ]
            ],
            [
                [
                    2.91869,
                    -0.06345,
                    0.37925
                ],
                [
                    -0.39727,
                    1.3462,
                    0.98227
                ],
                [
                    -0.31188,
                    0.89314,
                    2.52132
                ]
            ],
            [
                [
                    2.9187,
                    0.06345,
                    0.37926
                ],
                [
                    0.39727,
                    1.3462,
                    -0.98227
                ],
                [
                    -0.31191,
                    -0.89314,
                    2.52131
                ]
            ],
            [
                [
                    2.9187,
                    -0.06345,
                    0.37926
                ],
                [
                    -0.39726,
                    1.34622,
                    0.98231
                ],
                [
                    -0.31191,
                    0.89314,
                    2.52131
                ]
            ],
            [
                [
                    2.91869,
                    0.06345,
                    0.37925
                ],
                [
                    0.39726,
                    1.34622,
                    -0.98231
                ],
                [
                    -0.31188,
                    -0.89314,
                    2.52132
                ]
            ],
            [
                [
                    -1.48233,
                    -0.01787,
                    0.01365
                ],
                [
                    -0.10151,
                    -1.53597,
                    0.86635
                ],
                [
                    0.09212,
                    0.68959,
                    -2.80447
                ]
            ],
            [
                [
                    -1.48233,
                    0.01787,
                    0.01365
                ],
                [
                    0.10172,
                    -1.53624,
                    -0.8668
                ],
                [
                    0.09212,
                    -0.68959,
                    -2.80447
                ]
            ],
            [
                [
                    -2.29168,
                    -0.75378,
                    -0.5062
                ],
                [
                    -0.6028,
                    -1.74933,
                    -0.19535
                ],
                [
                    -0.43908,
                    -0.37643,
                    -1.80887
                ]
            ],
            [
                [
                    -2.29178,
                    0.75384,
                    -0.50626
                ],
                [
                    0.6028,
                    -1.74933,
                    0.19535
                ],
                [
                    -0.43905,
                    0.37639,
                    -1.8088
                ]
            ],
            [
                [
                    -2.66568,
                    0.57516,
                    0.30835
                ],
                [
                    0.60431,
                    -1.63848,
                    -0.3403
                ],
                [
                    0.34491,
                    -0.36338,
                    -1.47249
                ]
            ],
            [
                [
                    -1.48228,
                    -0.01788,
                    0.01372
                ],
                [
                    -0.10172,
                    -1.53624,
                    0.8668
                ],
                [
                    0.09217,
                    0.68965,
                    -2.80454
                ]
            ],
            [
                [
                    -2.29178,
                    -0.75384,
                    -0.50626
                ],
                [
                    -0.60302,
                    -1.7493,
                    -0.19544
                ],
                [
                    -0.43905,
                    -0.37639,
                    -1.8088
                ]
            ],
            [
                [
                    -2.29168,
                    0.75378,
                    -0.5062
                ],
                [
                    0.60302,
                    -1.7493,
                    0.19544
                ],
                [
                    -0.43908,
                    0.37643,
                    -1.80887
                ]
            ],
            [
                [
                    -1.48228,
                    0.01788,
                    0.01372
                ],
                [
                    0.10151,
                    -1.53597,
                    -0.86635
                ],
                [
                    0.09217,
                    -0.68965,
                    -2.80454
                ]
            ],
            [
                [
                    -2.66568,
                    -0.57516,
                    0.30835
                ],
                [
                    -0.60454,
                    -1.63855,
                    0.34047
                ],
                [
                    0.34491,
                    0.36338,
                    -1.47249
                ]
            ],
            [
                [
                    -2.66579,
                    -0.57517,
                    0.30833
                ],
                [
                    -0.60431,
                    -1.63848,
                    0.3403
                ],
                [
                    0.34493,
                    0.36338,
                    -1.47245
                ]
            ],
            [
                [
                    -2.66579,
                    0.57517,
                    0.30833
                ],
                [
                    0.60454,
                    -1.63855,
                    -0.34047
                ],
                [
                    0.34493,
                    -0.36338,
                    -1.47245
                ]
            ]
        ]
    },
    "band_gap": 4.5709,
    "is_direct": false,
    "formula": "Li3Sc(BO3)2"
}