{
    "mp_id": "mp-504506",
    "nelements": 4,
    "nsites": 12,
    "elements": [
        "In",
        "Mo",
        "O",
        "Rb"
    ],
    "structure": {
        "@module": "pymatgen.core.structure",
        "@class": "Structure",
        "charge": null,
        "lattice": {
            "matrix": [
                [
                    5.90229775,
                    0.0,
                    0.0
                ],
                [
                    -2.95114887,
                    5.11153963,
                    0.0
                ],
                [
                    0.0,
                    0.0,
                    7.61913796
                ]
            ],
            "a": 5.90229775,
            "b": 5.902297607030911,
            "c": 7.61913796,
            "alpha": 90.0,
            "beta": 90.0,
            "gamma": 120.00000074523216,
            "volume": 229.86808829248037
        },
        "sites": [
            {
                "species": [
                    {
                        "element": "Rb",
                        "occu": 1
                    }
                ],
                "abc": [
                    0.0,
                    0.0,
                    0.5
                ],
                "xyz": [
                    0.0,
                    0.0,
                    3.80956898
                ],
                "label": "Rb",
                "properties": {}
            },
            {
                "species": [
                    {
                        "element": "In",
                        "occu": 1
                    }
                ],
                "abc": [
                    0.0,
                    0.0,
                    0.0
                ],
                "xyz": [
                    0.0,
                    0.0,
                    0.0
                ],
                "label": "In",
                "properties": {}
            },
            {
                "species": [
                    {
                        "element": "Mo",
                        "occu": 1
                    }
                ],
                "abc": [
                    0.666667,
                    0.333333,
                    0.75356229
                ],
                "xyz": [
                    2.95115182781554,
                    1.70384483948679,
                    5.741495048963528
                ],
                "label": "Mo",
                "properties": {}
            },
            {
                "species": [
                    {
                        "element": "Mo",
                        "occu": 1
                    }
                ],
                "abc": [
                    0.333333,
                    0.666667,
                    0.24643771
                ],
                "xyz": [
                    -2.9478155401108097e-06,
                    3.4076947905132102,
                    1.8776429110364716
                ],
                "label": "Mo",
                "properties": {}
            },
            {
                "species": [
                    {
                        "element": "O",
                        "occu": 1
                    }
                ],
                "abc": [
                    0.33160364,
                    0.16580182,
                    0.82544263
                ],
                "xyz": [
                    1.4679175645268665,
                    0.8475025736561266,
                    6.289161276035235
                ],
                "label": "O",
                "properties": {}
            },
            {
                "species": [
                    {
                        "element": "O",
                        "occu": 1
                    }
                ],
                "abc": [
                    0.83419818,
                    0.16580182,
                    0.82544263
                ],
                "xyz": [
                    4.4343801871311515,
                    0.8475025736561266,
                    6.289161276035235
                ],
                "label": "O",
                "properties": {}
            },
            {
                "species": [
                    {
                        "element": "O",
                        "occu": 1
                    }
                ],
                "abc": [
                    0.83419818,
                    0.66839636,
                    0.82544263
                ],
                "xyz": [
                    2.9511488783419813,
                    3.416534482687747,
                    6.289161276035235
                ],
                "label": "O",
                "properties": {}
            },
            {
                "species": [
                    {
                        "element": "O",
                        "occu": 1
                    }
                ],
                "abc": [
                    0.16580182,
                    0.83419818,
                    0.17455737
                ],
                "xyz": [
                    -1.4832313071311518,
                    4.264037056343874,
                    1.329976683964765
                ],
                "label": "O",
                "properties": {}
            },
            {
                "species": [
                    {
                        "element": "O",
                        "occu": 1
                    }
                ],
                "abc": [
                    0.333333,
                    0.666667,
                    0.47459268
                ],
                "xyz": [
                    -2.9478155401108097e-06,
                    3.4076947905132102,
                    3.6159871037261326
                ],
                "label": "O",
                "properties": {}
            },
            {
                "species": [
                    {
                        "element": "O",
                        "occu": 1
                    }
                ],
                "abc": [
                    0.666667,
                    0.333333,
                    0.52540732
                ],
                "xyz": [
                    2.95115182781554,
                    1.70384483948679,
                    4.003150856273868
                ],
                "label": "O",
                "properties": {}
            },
            {
                "species": [
                    {
                        "element": "O",
                        "occu": 1
                    }
                ],
                "abc": [
                    0.66839636,
                    0.83419818,
                    0.17455737
                ],
                "xyz": [
                    1.4832313154731334,
                    4.264037056343874,
                    1.329976683964765
                ],
                "label": "O",
                "properties": {}
            },
            {
                "species": [
                    {
                        "element": "O",
                        "occu": 1
                    }
                ],
                "abc": [
                    0.16580182,
                    0.33160364,
                    0.17455737
                ],
                "xyz": [
                    1.658018167205455e-09,
                    1.6950051473122532,
                    1.329976683964765
                ],
                "label": "O",
                "properties": {}
            }
        ]
    },
    "spacegroup": {
        "source": "spglib",
        "symbol": "P-3m1",
        "number": 164,
        "point_group": "-3m",
        "crystal_system": "trigonal",
        "hall": "-P 3 2\""
    },
    "dielectric": {
        "epsilon_ionic": [
            [
                4.50911461,
                -5e-08,
                -0.0
            ],
            [
                -5e-08,
                4.50898973,
                4.665e-05
            ],
            [
                -0.0,
                4.665e-05,
                1.79137978
            ]
        ],
        "epsilon_ionic_avg": 3.6031613733333328,
        "epsilon_ionic_eig": [
            4.509114610020018,
            4.508989730780766,
            1.7913797791992143
        ],
        "epsilon_electronic": [
            [
                3.05070396,
                0.0,
                -0.0
            ],
            [
                0.0,
                3.05070395,
                0.0
            ],
            [
                -0.0,
                -0.0,
                2.836707
            ]
        ],
        "epsilon_electronic_avg": 2.9793716366666665,
        "epsilon_electronic_eig": [
            3.05070396,
            3.05070395,
            2.836707
        ]
    },
    "phonon": {
        "lowest_freq": -0.07987098789392374,
        "frequency": [
            -0.07987098789392374,
            -0.07987098774092692,
            -0.01200074505946476,
            0.6092469644984221,
            1.1591154669492536,
            1.1591154680035063,
            1.8074013509865707,
            1.8074013509865707,
            2.6153220985795236,
            3.0744906574851165,
            3.321320393222748,
            3.3213203969020095,
            4.365333868061852,
            4.365333873660511,
            4.49691213000795,
            5.965977751521106,
            5.965977772003929,
            6.788444282967994,
            8.029726576905345,
            8.029726592123803,
            8.731304624671607,
            8.73130463866723,
            9.591361338557265,
            9.6720918708123,
            10.04547191478516,
            10.045471926949851,
            10.52494104532564,
            10.52494105693616,
            23.612397694627088,
            23.612397694627088,
            25.043911582415518,
            25.043911582415518,
            26.50044723153101,
            27.85100160998856,
            28.40363848257805,
            28.811223151837584
        ]
    },
    "born_effective_charge": {
        "avg_abs_trace": 2.164727777777778,
        "tensors": [
            [
                [
                    1.28244,
                    -0.0,
                    -0.0
                ],
                [
                    -0.0,
                    1.2824,
                    -1e-05
                ],
                [
                    0.0,
                    0.0,
                    1.22614
                ]
            ],
            [
                [
                    4.915,
                    -0.0,
                    -0.0
                ],
                [
                    -0.0,
                    4.91498,
                    0.00022
                ],
                [
                    0.0,
                    0.0,
                    4.12026
                ]
            ],
            [
                [
                    3.72402,
                    -6e-05,
                    8e-05
                ],
                [
                    0.0,
                    3.72389,
                    0.00017
                ],
                [
                    0.0,
                    0.0,
                    3.16389
                ]
            ],
            [
                [
                    3.72402,
                    6e-05,
                    -8e-05
                ],
                [
                    0.0,
                    3.72389,
                    7e-05
                ],
                [
                    0.0,
                    0.0,
                    3.16416
                ]
            ],
            [
                [
                    -2.7606,
                    -1.15613,
                    0.89803
                ],
                [
                    -1.15599,
                    -1.42597,
                    0.51839
                ],
                [
                    0.7775,
                    0.44889,
                    -1.19013
                ]
            ],
            [
                [
                    -2.76096,
                    1.15595,
                    -0.89788
                ],
                [
                    1.15599,
                    -1.42597,
                    0.51839
                ],
                [
                    -0.7775,
                    0.44889,
                    -1.19013
                ]
            ],
            [
                [
                    -0.75859,
                    0.0002,
                    -0.00017
                ],
                [
                    0.0,
                    -3.4284,
                    -1.03686
                ],
                [
                    0.0,
                    -0.89779,
                    -1.19013
                ]
            ],
            [
                [
                    -2.7606,
                    1.15613,
                    -0.89803
                ],
                [
                    1.15584,
                    -1.42593,
                    0.51836
                ],
                [
                    -0.7773,
                    0.44878,
                    -1.19015
                ]
            ],
            [
                [
                    -0.54259,
                    0.00012,
                    5e-05
                ],
                [
                    -0.0,
                    -0.54246,
                    -9e-05
                ],
                [
                    0.0,
                    0.0,
                    -2.26688
                ]
            ],
            [
                [
                    -0.54259,
                    -0.00012,
                    -5e-05
                ],
                [
                    -0.0,
                    -0.54247,
                    -0.00019
                ],
                [
                    0.0,
                    0.0,
                    -2.26674
                ]
            ],
            [
                [
                    -2.76096,
                    -1.15595,
                    0.89788
                ],
                [
                    -1.15584,
                    -1.42593,
                    0.51836
                ],
                [
                    0.7773,
                    0.44878,
                    -1.19015
                ]
            ],
            [
                [
                    -0.75859,
                    -0.0002,
                    0.00017
                ],
                [
                    0.0,
                    -3.42804,
                    -1.0368
                ],
                [
                    -0.0,
                    -0.89755,
                    -1.19015
                ]
            ]
        ]
    },
    "band_gap": 3.8863,
    "is_direct": false,
    "formula": "RbIn(MoO4)2"
}