{
    "mp_id": "mp-560860",
    "nelements": 3,
    "nsites": 24,
    "elements": [
        "Na",
        "O",
        "Pt"
    ],
    "structure": {
        "@module": "pymatgen.core.structure",
        "@class": "Structure",
        "charge": null,
        "lattice": {
            "matrix": [
                [
                    0.0,
                    4.4282086,
                    9.28535276
                ],
                [
                    3.15673597,
                    0.0,
                    9.28535276
                ],
                [
                    3.15673597,
                    4.4282086,
                    0.0
                ]
            ],
            "a": 10.287215720628861,
            "b": 9.807280859745552,
            "c": 5.438199462083548,
            "alpha": 79.23149953652135,
            "beta": 69.48135207723894,
            "gamma": 31.28714838623971,
            "volume": 259.5940495682641
        },
        "sites": [
            {
                "species": [
                    {
                        "element": "Na",
                        "occu": 1
                    }
                ],
                "abc": [
                    0.24463176,
                    0.24463176,
                    0.75536824
                ],
                "xyz": [
                    3.1567359700000006,
                    4.4282086,
                    4.542984375799316
                ],
                "label": "Na",
                "properties": {}
            },
            {
                "species": [
                    {
                        "element": "Na",
                        "occu": 1
                    }
                ],
                "abc": [
                    0.92040592,
                    0.92040592,
                    0.07959408
                ],
                "xyz": [
                    3.15673597,
                    4.4282086,
                    17.09258729918468
                ],
                "label": "Na",
                "properties": {}
            },
            {
                "species": [
                    {
                        "element": "Na",
                        "occu": 1
                    }
                ],
                "abc": [
                    0.00536824,
                    0.00536824,
                    0.49463176
                ],
                "xyz": [
                    1.578367985,
                    2.2141043,
                    0.0996920042006848
                ],
                "label": "Na",
                "properties": {}
            },
            {
                "species": [
                    {
                        "element": "Na",
                        "occu": 1
                    }
                ],
                "abc": [
                    0.49463176,
                    0.49463176,
                    0.00536824
                ],
                "xyz": [
                    1.578367985,
                    2.2141043,
                    9.185660755799315
                ],
                "label": "Na",
                "properties": {}
            },
            {
                "species": [
                    {
                        "element": "Na",
                        "occu": 1
                    }
                ],
                "abc": [
                    0.17040592,
                    0.17040592,
                    0.32959408
                ],
                "xyz": [
                    1.5783679849999999,
                    2.2141043,
                    3.1645581591846783
                ],
                "label": "Na",
                "properties": {}
            },
            {
                "species": [
                    {
                        "element": "Na",
                        "occu": 1
                    }
                ],
                "abc": [
                    0.32959408,
                    0.32959408,
                    0.17040592
                ],
                "xyz": [
                    1.5783679849999999,
                    2.2141043,
                    6.120794600815322
                ],
                "label": "Na",
                "properties": {}
            },
            {
                "species": [
                    {
                        "element": "Na",
                        "occu": 1
                    }
                ],
                "abc": [
                    0.75536824,
                    0.75536824,
                    0.24463176
                ],
                "xyz": [
                    3.1567359700000006,
                    4.4282086,
                    14.027721144200687
                ],
                "label": "Na",
                "properties": {}
            },
            {
                "species": [
                    {
                        "element": "Na",
                        "occu": 1
                    }
                ],
                "abc": [
                    0.07959408,
                    0.07959408,
                    0.92040592
                ],
                "xyz": [
                    3.15673597,
                    4.4282086,
                    1.4781182208153216
                ],
                "label": "Na",
                "properties": {}
            },
            {
                "species": [
                    {
                        "element": "Pt",
                        "occu": 1
                    }
                ],
                "abc": [
                    0.58360437,
                    0.58360437,
                    0.41639563
                ],
                "xyz": [
                    3.15673597,
                    4.4282086,
                    10.837944895455122
                ],
                "label": "Pt",
                "properties": {}
            },
            {
                "species": [
                    {
                        "element": "Pt",
                        "occu": 1
                    }
                ],
                "abc": [
                    0.66639563,
                    0.66639563,
                    0.83360437
                ],
                "xyz": [
                    4.7351039550000005,
                    6.642312899999999,
                    12.375437004544878
                ],
                "label": "Pt",
                "properties": {}
            },
            {
                "species": [
                    {
                        "element": "Pt",
                        "occu": 1
                    }
                ],
                "abc": [
                    0.41639563,
                    0.41639563,
                    0.58360437
                ],
                "xyz": [
                    3.15673597,
                    4.4282086,
                    7.732760624544878
                ],
                "label": "Pt",
                "properties": {}
            },
            {
                "species": [
                    {
                        "element": "Pt",
                        "occu": 1
                    }
                ],
                "abc": [
                    0.83360437,
                    0.83360437,
                    0.66639563
                ],
                "xyz": [
                    4.7351039550000005,
                    6.642312899999999,
                    15.480621275455123
                ],
                "label": "Pt",
                "properties": {}
            },
            {
                "species": [
                    {
                        "element": "O",
                        "occu": 1
                    }
                ],
                "abc": [
                    0.28938932,
                    0.71061068,
                    0.71061068
                ],
                "xyz": [
                    4.48642058844432,
                    4.4282086,
                    9.285352760000002
                ],
                "label": "O",
                "properties": {}
            },
            {
                "species": [
                    {
                        "element": "O",
                        "occu": 1
                    }
                ],
                "abc": [
                    0.66293262,
                    0.15817297,
                    0.79754719
                ],
                "xyz": [
                    3.0169562063261552,
                    6.467309254768365,
                    7.624255056357928
                ],
                "label": "O",
                "properties": {}
            },
            {
                "species": [
                    {
                        "element": "O",
                        "occu": 1
                    }
                ],
                "abc": [
                    0.15817297,
                    0.66293262,
                    0.38134722
                ],
                "xyz": [
                    3.2965157336738447,
                    2.3891079452316335,
                    7.624255056357928
                ],
                "label": "O",
                "properties": {}
            },
            {
                "species": [
                    {
                        "element": "O",
                        "occu": 1
                    }
                ],
                "abc": [
                    0.79754719,
                    0.38134722,
                    0.66293262
                ],
                "xyz": [
                    3.2965157336738447,
                    6.467309254768365,
                    10.946450463642071
                ],
                "label": "O",
                "properties": {}
            },
            {
                "species": [
                    {
                        "element": "O",
                        "occu": 1
                    }
                ],
                "abc": [
                    0.09182703,
                    0.58706738,
                    0.86865278
                ],
                "xyz": [
                    4.5953241913261555,
                    4.253204954768366,
                    6.303774083642072
                ],
                "label": "O",
                "properties": {}
            },
            {
                "species": [
                    {
                        "element": "O",
                        "occu": 1
                    }
                ],
                "abc": [
                    0.38134722,
                    0.79754719,
                    0.15817297
                ],
                "xyz": [
                    3.0169562063261552,
                    2.3891079452316335,
                    10.946450463642071
                ],
                "label": "O",
                "properties": {}
            },
            {
                "species": [
                    {
                        "element": "O",
                        "occu": 1
                    }
                ],
                "abc": [
                    0.58706738,
                    0.09182703,
                    0.45245281
                ],
                "xyz": [
                    1.718147748673845,
                    4.603212245231633,
                    6.303774083642072
                ],
                "label": "O",
                "properties": {}
            },
            {
                "species": [
                    {
                        "element": "O",
                        "occu": 1
                    }
                ],
                "abc": [
                    0.53938932,
                    0.96061068,
                    0.96061068
                ],
                "xyz": [
                    6.06478857344432,
                    6.642312899999999,
                    13.928029140000001
                ],
                "label": "O",
                "properties": {}
            },
            {
                "species": [
                    {
                        "element": "O",
                        "occu": 1
                    }
                ],
                "abc": [
                    0.45245281,
                    0.86865278,
                    0.58706738
                ],
                "xyz": [
                    4.5953241913261555,
                    4.603212245231633,
                    12.266931436357929
                ],
                "label": "O",
                "properties": {}
            },
            {
                "species": [
                    {
                        "element": "O",
                        "occu": 1
                    }
                ],
                "abc": [
                    0.86865278,
                    0.45245281,
                    0.09182703
                ],
                "xyz": [
                    1.718147748673845,
                    4.253204954768366,
                    12.266931436357929
                ],
                "label": "O",
                "properties": {}
            },
            {
                "species": [
                    {
                        "element": "O",
                        "occu": 1
                    }
                ],
                "abc": [
                    0.96061068,
                    0.53938932,
                    0.53938932
                ],
                "xyz": [
                    3.405419336555681,
                    6.642312899999999,
                    13.928029140000001
                ],
                "label": "O",
                "properties": {}
            },
            {
                "species": [
                    {
                        "element": "O",
                        "occu": 1
                    }
                ],
                "abc": [
                    0.71061068,
                    0.28938932,
                    0.28938932
                ],
                "xyz": [
                    1.827051351555681,
                    4.4282086,
                    9.285352760000002
                ],
                "label": "O",
                "properties": {}
            }
        ]
    },
    "spacegroup": {
        "source": "spglib",
        "symbol": "Fddd",
        "number": 70,
        "point_group": "mmm",
        "crystal_system": "orthorhombic",
        "hall": "F 2 2 -1d"
    },
    "dielectric": {
        "epsilon_ionic": [
            [
                3.52811769,
                5e-08,
                -0.0
            ],
            [
                5e-08,
                4.56752529,
                -0.0
            ],
            [
                -0.0,
                -0.0,
                3.59579494
            ]
        ],
        "epsilon_ionic_avg": 3.897145973333334,
        "epsilon_ionic_eig": [
            3.528117689999998,
            4.5675252900000025,
            3.59579494
        ],
        "epsilon_electronic": [
            [
                4.14023798,
                0.0,
                0.0
            ],
            [
                0.0,
                4.82613761,
                0.0
            ],
            [
                0.0,
                0.0,
                5.39331941
            ]
        ],
        "epsilon_electronic_avg": 4.786565,
        "epsilon_electronic_eig": [
            4.14023798,
            4.82613761,
            5.39331941
        ]
    },
    "phonon": {
        "lowest_freq": -0.032699380572725444,
        "frequency": [
            -0.032699380572725444,
            -0.019899566251159535,
            -0.01786306729815262,
            2.5672751415182127,
            3.2432574334568853,
            3.7503701676703396,
            4.210917087560906,
            4.513264500168556,
            4.835598730160777,
            4.856744216627176,
            4.97991168183142,
            5.090311785330355,
            5.335780363254638,
            5.469102275320881,
            5.617882378381631,
            5.789180663209276,
            5.796620334369525,
            6.041624863635104,
            6.47134330335974,
            6.494480879151089,
            6.494618591897526,
            6.651317209721251,
            6.800462632496569,
            6.919755645173593,
            6.972582506786958,
            7.052878094929937,
            7.170836276373976,
            7.258248588412966,
            7.534181093290099,
            7.660616394779849,
            7.6728852529626375,
            7.887325588069839,
            7.9178960051797365,
            8.366722193855097,
            9.006211797071689,
            9.174660604543382,
            10.793300300072742,
            10.95452690194496,
            11.060381198266423,
            11.09469190709369,
            11.13649714446572,
            11.473242410098381,
            12.06306968528119,
            12.09897533767495,
            12.802619686136028,
            12.902265018855578,
            13.40574229490417,
            13.613051254343395,
            14.416198753677465,
            14.593612616440458,
            14.745975247997553,
            14.811834033641455,
            15.25599310348473,
            15.49798296591849,
            15.521038528013156,
            15.524566386387875,
            15.5412305075545,
            15.628026519779173,
            15.733071481500508,
            15.776369311588619,
            15.932923381008383,
            15.998166421479144,
            16.248577253271762,
            16.27765266849267,
            16.283133749498457,
            16.378937016629287,
            16.49641286921144,
            16.530493194358876,
            16.567602505287855,
            17.29160673134338,
            17.480975916245804,
            17.54458898231847
        ]
    },
    "born_effective_charge": {
        "avg_abs_trace": 1.540978611111111,
        "tensors": [
            [
                [
                    1.01224,
                    -0.36465,
                    0.0
                ],
                [
                    -0.37203,
                    0.92155,
                    0.0
                ],
                [
                    0.0,
                    -0.0,
                    1.24863
                ]
            ],
            [
                [
                    1.35138,
                    0.12603,
                    -0.0
                ],
                [
                    0.18842,
                    1.29014,
                    2e-05
                ],
                [
                    0.0,
                    -0.0,
                    0.83575
                ]
            ],
            [
                [
                    1.01224,
                    -0.36465,
                    -0.0
                ],
                [
                    -0.37203,
                    0.92155,
                    -0.0
                ],
                [
                    0.0,
                    -0.0,
                    1.24866
                ]
            ],
            [
                [
                    1.01224,
                    0.36465,
                    0.0
                ],
                [
                    0.37203,
                    0.92155,
                    0.0
                ],
                [
                    0.0,
                    -0.0,
                    1.24863
                ]
            ],
            [
                [
                    1.35138,
                    -0.12603,
                    -0.0
                ],
                [
                    -0.18842,
                    1.29014,
                    2e-05
                ],
                [
                    0.0,
                    -0.0,
                    0.83575
                ]
            ],
            [
                [
                    1.35138,
                    0.12603,
                    0.0
                ],
                [
                    0.18842,
                    1.29014,
                    -2e-05
                ],
                [
                    0.0,
                    -0.0,
                    0.83574
                ]
            ],
            [
                [
                    1.01224,
                    0.36465,
                    -0.0
                ],
                [
                    0.37203,
                    0.92155,
                    -0.0
                ],
                [
                    0.0,
                    -0.0,
                    1.24866
                ]
            ],
            [
                [
                    1.35138,
                    -0.12603,
                    0.0
                ],
                [
                    -0.18842,
                    1.29014,
                    -2e-05
                ],
                [
                    0.0,
                    -0.0,
                    0.83574
                ]
            ],
            [
                [
                    1.7305,
                    0.96165,
                    9e-05
                ],
                [
                    1.20816,
                    2.42843,
                    0.00013
                ],
                [
                    0.0,
                    -0.0,
                    3.05019
                ]
            ],
            [
                [
                    1.7305,
                    0.96165,
                    -9e-05
                ],
                [
                    1.20816,
                    2.42843,
                    -0.00013
                ],
                [
                    0.0,
                    -0.0,
                    3.05016
                ]
            ],
            [
                [
                    1.7305,
                    -0.96165,
                    -9e-05
                ],
                [
                    -1.20816,
                    2.42843,
                    -0.00013
                ],
                [
                    0.0,
                    -0.0,
                    3.05016
                ]
            ],
            [
                [
                    1.7305,
                    -0.96165,
                    9e-05
                ],
                [
                    -1.20816,
                    2.42843,
                    0.00013
                ],
                [
                    0.0,
                    -0.0,
                    3.05019
                ]
            ],
            [
                [
                    -1.74546,
                    -0.0,
                    0.0
                ],
                [
                    0.0004,
                    -0.57104,
                    0.39837
                ],
                [
                    3e-05,
                    0.05642,
                    -2.39735
                ]
            ],
            [
                [
                    -1.17412,
                    0.42595,
                    -0.63067
                ],
                [
                    0.30515,
                    -2.03472,
                    0.29994
                ],
                [
                    -0.83034,
                    0.04014,
                    -1.36854
                ]
            ],
            [
                [
                    -1.17424,
                    0.4261,
                    0.63027
                ],
                [
                    0.30515,
                    -2.03436,
                    -0.30027
                ],
                [
                    0.83034,
                    -0.04014,
                    -1.36854
                ]
            ],
            [
                [
                    -1.17424,
                    -0.4261,
                    -0.63027
                ],
                [
                    -0.30515,
                    -2.03472,
                    -0.29994
                ],
                [
                    -0.83036,
                    -0.04027,
                    -1.36868
                ]
            ],
            [
                [
                    -1.17412,
                    0.42595,
                    0.63067
                ],
                [
                    0.30515,
                    -2.03472,
                    -0.29994
                ],
                [
                    0.83036,
                    -0.04027,
                    -1.36868
                ]
            ],
            [
                [
                    -1.17412,
                    -0.42595,
                    0.63067
                ],
                [
                    -0.30515,
                    -2.03436,
                    0.30027
                ],
                [
                    0.83036,
                    0.04027,
                    -1.36868
                ]
            ],
            [
                [
                    -1.17424,
                    0.4261,
                    -0.63027
                ],
                [
                    0.30515,
                    -2.03436,
                    0.30027
                ],
                [
                    -0.83036,
                    0.04027,
                    -1.36868
                ]
            ],
            [
                [
                    -1.74546,
                    0.0,
                    -0.0
                ],
                [
                    0.0004,
                    -0.57104,
                    -0.39837
                ],
                [
                    3e-05,
                    -0.05642,
                    -2.39735
                ]
            ],
            [
                [
                    -1.17412,
                    -0.42595,
                    -0.63067
                ],
                [
                    -0.30515,
                    -2.03436,
                    -0.30027
                ],
                [
                    -0.83034,
                    -0.04014,
                    -1.36854
                ]
            ],
            [
                [
                    -1.17424,
                    -0.4261,
                    0.63027
                ],
                [
                    -0.30515,
                    -2.03472,
                    0.29994
                ],
                [
                    0.83034,
                    0.04014,
                    -1.36854
                ]
            ],
            [
                [
                    -1.74606,
                    -0.0,
                    0.0
                ],
                [
                    -0.0004,
                    -0.57104,
                    0.39837
                ],
                [
                    -3e-05,
                    0.05642,
                    -2.39735
                ]
            ],
            [
                [
                    -1.74606,
                    0.0,
                    0.0
                ],
                [
                    -0.0004,
                    -0.57104,
                    -0.39837
                ],
                [
                    -3e-05,
                    -0.05642,
                    -2.39735
                ]
            ]
        ]
    },
    "band_gap": 2.0352999999999994,
    "is_direct": false,
    "formula": "Na2PtO3"
}