{
    "mp_id": "mp-557183",
    "nelements": 4,
    "nsites": 10,
    "elements": [
        "K",
        "Na",
        "O",
        "Zn"
    ],
    "structure": {
        "@module": "pymatgen.core.structure",
        "@class": "Structure",
        "charge": null,
        "lattice": {
            "matrix": [
                [
                    3.40474811,
                    -4.82484124,
                    -0.00080241
                ],
                [
                    3.40474811,
                    4.82484124,
                    -0.00080241
                ],
                [
                    -3.09698388,
                    0.0,
                    4.44103199
                ]
            ],
            "a": 5.905201379090735,
            "b": 5.905201379090735,
            "c": 5.414247342815362,
            "alpha": 109.26342334181474,
            "beta": 109.26342334181474,
            "gamma": 109.58101756404031,
            "volume": 145.88496335506227
        },
        "sites": [
            {
                "species": [
                    {
                        "element": "K",
                        "occu": 1
                    }
                ],
                "abc": [
                    0.12285015,
                    0.87714985,
                    0.75
                ],
                "xyz": [
                    1.0820102,
                    3.6393762998796273,
                    3.3299715825000002
                ],
                "label": "K",
                "properties": {}
            },
            {
                "species": [
                    {
                        "element": "K",
                        "occu": 1
                    }
                ],
                "abc": [
                    0.87714985,
                    0.12285015,
                    0.25
                ],
                "xyz": [
                    2.63050214,
                    -3.6393762998796273,
                    1.1094555875
                ],
                "label": "K",
                "properties": {}
            },
            {
                "species": [
                    {
                        "element": "Na",
                        "occu": 1
                    }
                ],
                "abc": [
                    0.23113067,
                    0.76886933,
                    0.25
                ],
                "xyz": [
                    2.63050214,
                    2.5945036631103386,
                    1.1094555875
                ],
                "label": "Na",
                "properties": {}
            },
            {
                "species": [
                    {
                        "element": "Na",
                        "occu": 1
                    }
                ],
                "abc": [
                    0.76886933,
                    0.23113067,
                    0.75
                ],
                "xyz": [
                    1.0820102,
                    -2.5945036631103386,
                    3.3299715825000002
                ],
                "label": "Na",
                "properties": {}
            },
            {
                "species": [
                    {
                        "element": "Zn",
                        "occu": 1
                    }
                ],
                "abc": [
                    0.49073366,
                    0.50926634,
                    0.75
                ],
                "xyz": [
                    1.0820102,
                    0.08941723875172336,
                    3.3299715825000002
                ],
                "label": "Zn",
                "properties": {}
            },
            {
                "species": [
                    {
                        "element": "Zn",
                        "occu": 1
                    }
                ],
                "abc": [
                    0.50926634,
                    0.49073366,
                    0.25
                ],
                "xyz": [
                    2.63050214,
                    -0.08941723875172336,
                    1.1094555875
                ],
                "label": "Zn",
                "properties": {}
            },
            {
                "species": [
                    {
                        "element": "O",
                        "occu": 1
                    }
                ],
                "abc": [
                    0.21504571,
                    0.42764676,
                    0.87449325
                ],
                "xyz": [
                    -0.5200855258750781,
                    1.025766313707302,
                    3.883136795424215
                ],
                "label": "O",
                "properties": {}
            },
            {
                "species": [
                    {
                        "element": "O",
                        "occu": 1
                    }
                ],
                "abc": [
                    0.57235324,
                    0.78495429,
                    0.62550675
                ],
                "xyz": [
                    2.684105925875079,
                    1.0257663137073023,
                    2.776806369575785
                ],
                "label": "O",
                "properties": {}
            },
            {
                "species": [
                    {
                        "element": "O",
                        "occu": 1
                    }
                ],
                "abc": [
                    0.42764676,
                    0.21504571,
                    0.37449325
                ],
                "xyz": [
                    1.0284064141249218,
                    -1.025766313707302,
                    1.6626208004242147
                ],
                "label": "O",
                "properties": {}
            },
            {
                "species": [
                    {
                        "element": "O",
                        "occu": 1
                    }
                ],
                "abc": [
                    0.78495429,
                    0.57235324,
                    0.12550675
                ],
                "xyz": [
                    4.232597865875079,
                    -1.0257663137073023,
                    0.5562903745757852
                ],
                "label": "O",
                "properties": {}
            }
        ]
    },
    "spacegroup": {
        "source": "spglib",
        "symbol": "C2/c",
        "number": 15,
        "point_group": "2/m",
        "crystal_system": "monoclinic",
        "hall": "-C 2yc"
    },
    "dielectric": {
        "epsilon_ionic": [
            [
                13.12733804,
                -0.0,
                -1.70534509
            ],
            [
                -0.0,
                7.38703744,
                -0.0
            ],
            [
                -1.70534509,
                -0.0,
                5.24044491
            ]
        ],
        "epsilon_ionic_avg": 8.58494013,
        "epsilon_ionic_eig": [
            13.480282133098655,
            4.887500816901343,
            7.38703744
        ],
        "epsilon_electronic": [
            [
                3.21449902,
                0.0,
                -0.16956158
            ],
            [
                0.0,
                3.10481016,
                0.0
            ],
            [
                -0.16955676,
                0.0,
                3.36658485
            ]
        ],
        "epsilon_electronic_avg": 3.2286313433333333,
        "epsilon_electronic_eig": [
            3.104711805454283,
            3.4763720645457172,
            3.10481016
        ]
    },
    "phonon": {
        "lowest_freq": -0.052617918670785885,
        "frequency": [
            -0.052617918670785885,
            -0.04254973270275045,
            -0.026475526165370696,
            1.8910403977728136,
            2.6710117216712415,
            2.787972046797182,
            3.025538817776202,
            3.249741645016288,
            4.052535310416396,
            4.466135314035555,
            4.482171485251207,
            5.621569260305695,
            6.114859972561265,
            7.042733024973011,
            7.129107215947894,
            7.296115220551239,
            7.480182359094961,
            8.07168438344469,
            8.08382420525142,
            8.31184506447101,
            8.621702796714619,
            8.948126450722246,
            10.080635970081595,
            10.88910670096498,
            11.341930045449212,
            11.766470962906435,
            13.178825842217197,
            14.419121309457399,
            15.811603101460586,
            16.03092360812465
        ]
    },
    "born_effective_charge": {
        "avg_abs_trace": 1.496651,
        "tensors": [
            [
                [
                    1.17289,
                    0.0,
                    0.12996
                ],
                [
                    0.0,
                    1.14294,
                    0.0
                ],
                [
                    0.09558,
                    1e-05,
                    1.18123
                ]
            ],
            [
                [
                    1.17289,
                    -0.0,
                    0.12996
                ],
                [
                    0.0,
                    1.14296,
                    0.0
                ],
                [
                    0.09558,
                    -1e-05,
                    1.18123
                ]
            ],
            [
                [
                    0.88616,
                    0.0,
                    -0.01433
                ],
                [
                    0.0,
                    1.04796,
                    0.0
                ],
                [
                    -0.00012,
                    2e-05,
                    0.89737
                ]
            ],
            [
                [
                    0.88616,
                    -0.0,
                    -0.01433
                ],
                [
                    0.0,
                    1.04797,
                    0.0
                ],
                [
                    -0.00012,
                    -2e-05,
                    0.89737
                ]
            ],
            [
                [
                    1.61904,
                    -5e-05,
                    -0.46677
                ],
                [
                    0.0,
                    1.30685,
                    0.0
                ],
                [
                    -0.40364,
                    -4e-05,
                    1.97049
                ]
            ],
            [
                [
                    1.61904,
                    5e-05,
                    -0.46677
                ],
                [
                    0.0,
                    1.30673,
                    0.0
                ],
                [
                    -0.40364,
                    4e-05,
                    1.97049
                ]
            ],
            [
                [
                    -1.83902,
                    0.22231,
                    0.17559
                ],
                [
                    0.20733,
                    -1.74887,
                    0.17461
                ],
                [
                    0.15404,
                    0.22112,
                    -2.02458
                ]
            ],
            [
                [
                    -1.83907,
                    -0.22244,
                    0.17555
                ],
                [
                    -0.20733,
                    -1.74887,
                    -0.17461
                ],
                [
                    0.15414,
                    -0.22101,
                    -2.02451
                ]
            ],
            [
                [
                    -1.83902,
                    -0.22231,
                    0.17559
                ],
                [
                    -0.20741,
                    -1.74883,
                    -0.17463
                ],
                [
                    0.15404,
                    -0.22112,
                    -2.02458
                ]
            ],
            [
                [
                    -1.83907,
                    0.22244,
                    0.17555
                ],
                [
                    0.20741,
                    -1.74883,
                    0.17463
                ],
                [
                    0.15414,
                    0.22101,
                    -2.02451
                ]
            ]
        ]
    },
    "band_gap": 2.129,
    "is_direct": true,
    "formula": "KNaZnO2"
}