{
    "mp_id": "mp-559186",
    "nelements": 4,
    "nsites": 28,
    "elements": [
        "B",
        "Ba",
        "Bi",
        "O"
    ],
    "structure": {
        "@module": "pymatgen.core.structure",
        "@class": "Structure",
        "charge": null,
        "lattice": {
            "matrix": [
                [
                    8.54598848,
                    0.0,
                    0.0
                ],
                [
                    0.0,
                    5.13286254,
                    0.0
                ],
                [
                    0.0,
                    0.0,
                    9.69229841
                ]
            ],
            "a": 8.54598848,
            "b": 5.13286254,
            "c": 9.69229841,
            "alpha": 90.0,
            "beta": 90.0,
            "gamma": 90.0,
            "volume": 425.1563929179463
        },
        "sites": [
            {
                "species": [
                    {
                        "element": "Ba",
                        "occu": 1
                    }
                ],
                "abc": [
                    0.0069054,
                    0.25,
                    0.81720896
                ],
                "xyz": [
                    0.059013468849792,
                    1.283215635,
                    7.920633103645753
                ],
                "label": "Ba",
                "properties": {}
            },
            {
                "species": [
                    {
                        "element": "Ba",
                        "occu": 1
                    }
                ],
                "abc": [
                    0.4930946,
                    0.75,
                    0.31720896
                ],
                "xyz": [
                    4.213980771150208,
                    3.8496469049999997,
                    3.074483898645753
                ],
                "label": "Ba",
                "properties": {}
            },
            {
                "species": [
                    {
                        "element": "Ba",
                        "occu": 1
                    }
                ],
                "abc": [
                    0.9930946,
                    0.75,
                    0.18279104
                ],
                "xyz": [
                    8.486975011150209,
                    3.8496469049999997,
                    1.7716653063542462
                ],
                "label": "Ba",
                "properties": {}
            },
            {
                "species": [
                    {
                        "element": "Ba",
                        "occu": 1
                    }
                ],
                "abc": [
                    0.5069054,
                    0.25,
                    0.68279104
                ],
                "xyz": [
                    4.332007708849791,
                    1.283215635,
                    6.617814511354246
                ],
                "label": "Ba",
                "properties": {}
            },
            {
                "species": [
                    {
                        "element": "Bi",
                        "occu": 1
                    }
                ],
                "abc": [
                    0.30910333,
                    0.75,
                    0.93760335
                ],
                "xyz": [
                    2.6415934973096387,
                    3.8496469049999997,
                    9.087531458415672
                ],
                "label": "Bi",
                "properties": {}
            },
            {
                "species": [
                    {
                        "element": "Bi",
                        "occu": 1
                    }
                ],
                "abc": [
                    0.69089667,
                    0.25,
                    0.06239665
                ],
                "xyz": [
                    5.904394982690362,
                    1.283215635,
                    0.6047669515843265
                ],
                "label": "Bi",
                "properties": {}
            },
            {
                "species": [
                    {
                        "element": "Bi",
                        "occu": 1
                    }
                ],
                "abc": [
                    0.19089667,
                    0.25,
                    0.43760335
                ],
                "xyz": [
                    1.6314007426903616,
                    1.283215635,
                    4.241382253415673
                ],
                "label": "Bi",
                "properties": {}
            },
            {
                "species": [
                    {
                        "element": "Bi",
                        "occu": 1
                    }
                ],
                "abc": [
                    0.80910333,
                    0.75,
                    0.56239665
                ],
                "xyz": [
                    6.914587737309638,
                    3.8496469049999997,
                    5.450916156584326
                ],
                "label": "Bi",
                "properties": {}
            },
            {
                "species": [
                    {
                        "element": "B",
                        "occu": 1
                    }
                ],
                "abc": [
                    0.19975886,
                    0.75,
                    0.55921357
                ],
                "xyz": [
                    1.7071369163379329,
                    3.8496469049999997,
                    5.420064795361424
                ],
                "label": "B",
                "properties": {}
            },
            {
                "species": [
                    {
                        "element": "B",
                        "occu": 1
                    }
                ],
                "abc": [
                    0.80024114,
                    0.25,
                    0.44078643
                ],
                "xyz": [
                    6.838851563662067,
                    1.283215635,
                    4.272233614638576
                ],
                "label": "B",
                "properties": {}
            },
            {
                "species": [
                    {
                        "element": "B",
                        "occu": 1
                    }
                ],
                "abc": [
                    0.30024114,
                    0.25,
                    0.05921357
                ],
                "xyz": [
                    2.565857323662067,
                    1.283215635,
                    0.5739155903614237
                ],
                "label": "B",
                "properties": {}
            },
            {
                "species": [
                    {
                        "element": "B",
                        "occu": 1
                    }
                ],
                "abc": [
                    0.69975886,
                    0.75,
                    0.94078643
                ],
                "xyz": [
                    5.980131156337933,
                    3.8496469049999997,
                    9.118382819638576
                ],
                "label": "B",
                "properties": {}
            },
            {
                "species": [
                    {
                        "element": "O",
                        "occu": 1
                    }
                ],
                "abc": [
                    0.70629536,
                    0.98744351,
                    0.87461488
                ],
                "xyz": [
                    6.035992010037453,
                    5.068411802845115,
                    8.47702841078634
                ],
                "label": "O",
                "properties": {}
            },
            {
                "species": [
                    {
                        "element": "O",
                        "occu": 1
                    }
                ],
                "abc": [
                    0.81530992,
                    0.25,
                    0.58433603
                ],
                "xyz": [
                    6.967629183949722,
                    1.283215635,
                    5.663559174474712
                ],
                "label": "O",
                "properties": {}
            },
            {
                "species": [
                    {
                        "element": "O",
                        "occu": 1
                    }
                ],
                "abc": [
                    0.79370464,
                    0.01255649,
                    0.37461488
                ],
                "xyz": [
                    6.782990709962547,
                    0.0644507371548846,
                    3.6308792057863406
                ],
                "label": "O",
                "properties": {}
            },
            {
                "species": [
                    {
                        "element": "O",
                        "occu": 1
                    }
                ],
                "abc": [
                    0.70629536,
                    0.51255649,
                    0.87461488
                ],
                "xyz": [
                    6.035992010037453,
                    2.6308820071548844,
                    8.47702841078634
                ],
                "label": "O",
                "properties": {}
            },
            {
                "species": [
                    {
                        "element": "O",
                        "occu": 1
                    }
                ],
                "abc": [
                    0.79370464,
                    0.48744351,
                    0.37461488
                ],
                "xyz": [
                    6.782990709962547,
                    2.5019805328451152,
                    3.6308792057863406
                ],
                "label": "O",
                "properties": {}
            },
            {
                "species": [
                    {
                        "element": "O",
                        "occu": 1
                    }
                ],
                "abc": [
                    0.57287865,
                    0.75,
                    0.5861327
                ],
                "xyz": [
                    4.895814343337952,
                    3.8496469049999997,
                    5.680973036259006
                ],
                "label": "O",
                "properties": {}
            },
            {
                "species": [
                    {
                        "element": "O",
                        "occu": 1
                    }
                ],
                "abc": [
                    0.68469008,
                    0.75,
                    0.08433603
                ],
                "xyz": [
                    5.851353536050278,
                    3.8496469049999997,
                    0.8174099694747123
                ],
                "label": "O",
                "properties": {}
            },
            {
                "species": [
                    {
                        "element": "O",
                        "occu": 1
                    }
                ],
                "abc": [
                    0.18469008,
                    0.75,
                    0.41566397
                ],
                "xyz": [
                    1.5783592960502786,
                    3.8496469049999997,
                    4.028739235525287
                ],
                "label": "O",
                "properties": {}
            },
            {
                "species": [
                    {
                        "element": "O",
                        "occu": 1
                    }
                ],
                "abc": [
                    0.29370464,
                    0.01255649,
                    0.12538512
                ],
                "xyz": [
                    2.509996469962547,
                    0.0644507371548846,
                    1.215269999213659
                ],
                "label": "O",
                "properties": {}
            },
            {
                "species": [
                    {
                        "element": "O",
                        "occu": 1
                    }
                ],
                "abc": [
                    0.20629536,
                    0.51255649,
                    0.62538512
                ],
                "xyz": [
                    1.7629977700374528,
                    2.6308820071548844,
                    6.061419204213659
                ],
                "label": "O",
                "properties": {}
            },
            {
                "species": [
                    {
                        "element": "O",
                        "occu": 1
                    }
                ],
                "abc": [
                    0.07287865,
                    0.75,
                    0.9138673
                ],
                "xyz": [
                    0.622820103337952,
                    3.8496469049999997,
                    8.857474578740993
                ],
                "label": "O",
                "properties": {}
            },
            {
                "species": [
                    {
                        "element": "O",
                        "occu": 1
                    }
                ],
                "abc": [
                    0.92712135,
                    0.25,
                    0.0861327
                ],
                "xyz": [
                    7.923168376662048,
                    1.283215635,
                    0.834823831259007
                ],
                "label": "O",
                "properties": {}
            },
            {
                "species": [
                    {
                        "element": "O",
                        "occu": 1
                    }
                ],
                "abc": [
                    0.20629536,
                    0.98744351,
                    0.62538512
                ],
                "xyz": [
                    1.7629977700374528,
                    5.068411802845115,
                    6.061419204213659
                ],
                "label": "O",
                "properties": {}
            },
            {
                "species": [
                    {
                        "element": "O",
                        "occu": 1
                    }
                ],
                "abc": [
                    0.42712135,
                    0.25,
                    0.4138673
                ],
                "xyz": [
                    3.650174136662048,
                    1.283215635,
                    4.011325373740993
                ],
                "label": "O",
                "properties": {}
            },
            {
                "species": [
                    {
                        "element": "O",
                        "occu": 1
                    }
                ],
                "abc": [
                    0.29370464,
                    0.48744351,
                    0.12538512
                ],
                "xyz": [
                    2.509996469962547,
                    2.5019805328451152,
                    1.215269999213659
                ],
                "label": "O",
                "properties": {}
            },
            {
                "species": [
                    {
                        "element": "O",
                        "occu": 1
                    }
                ],
                "abc": [
                    0.31530992,
                    0.25,
                    0.91566397
                ],
                "xyz": [
                    2.6946349439497217,
                    1.283215635,
                    8.874888440525288
                ],
                "label": "O",
                "properties": {}
            }
        ]
    },
    "spacegroup": {
        "source": "spglib",
        "symbol": "Pnma",
        "number": 62,
        "point_group": "mmm",
        "crystal_system": "orthorhombic",
        "hall": "-P 2ac 2n"
    },
    "dielectric": {
        "epsilon_ionic": [
            [
                4.58578115,
                5e-08,
                2e-08
            ],
            [
                5e-08,
                24.9226105,
                5e-08
            ],
            [
                2e-08,
                5e-08,
                5.3165365
            ]
        ],
        "epsilon_ionic_avg": 11.60830938333333,
        "epsilon_ionic_eig": [
            4.585781149999999,
            24.922610499999987,
            5.3165365000000016
        ],
        "epsilon_electronic": [
            [
                3.87200705,
                -0.0,
                0.0
            ],
            [
                -0.0,
                4.89283429,
                0.0
            ],
            [
                0.0,
                0.0,
                3.89852791
            ]
        ],
        "epsilon_electronic_avg": 4.2211230833333335,
        "epsilon_electronic_eig": [
            3.87200705,
            4.89283429,
            3.89852791
        ]
    },
    "phonon": {
        "lowest_freq": -0.02584962869285003,
        "frequency": [
            -0.02584962869285003,
            -0.023671827053531637,
            -0.02022744911982931,
            1.2469360807938366,
            1.4334976476499255,
            1.5052011079172223,
            1.5641488892585904,
            1.6689413904617545,
            1.7012900085352434,
            1.843622074900383,
            1.9361513618228026,
            2.280132354794575,
            2.4715718172494325,
            2.541712024267878,
            2.596144229555494,
            2.7009134478842363,
            2.8186411614298157,
            2.852839799008069,
            3.1425949164037763,
            3.5822798049404283,
            3.6096924540103963,
            3.841614838447214,
            3.91871015697489,
            4.076101373835147,
            4.097901183005905,
            4.284823330518041,
            4.321900454780353,
            4.427299404267694,
            4.641720432907174,
            5.227092163711931,
            5.305344325068322,
            5.470545645290869,
            5.489241258588781,
            5.52096300799102,
            5.682611325884382,
            5.72618748739567,
            5.945122270943168,
            6.052985844587995,
            6.072727698317167,
            6.433693765378406,
            6.780984001347054,
            6.949077440810959,
            7.286793131251748,
            7.460469272863302,
            7.513173816284894,
            7.91843178844169,
            8.26905583037475,
            8.272391393443877,
            8.566560470644461,
            8.784533389347994,
            9.50998179189002,
            9.632509068198775,
            9.639620960049971,
            9.670594666733818,
            9.830550995546654,
            9.86453906197365,
            16.88923513578148,
            16.899591724887618,
            16.909921736770293,
            16.92245360601376,
            17.08062310888501,
            17.268118744522724,
            17.362534457997963,
            17.499682165577703,
            17.96230207456866,
            18.051861618583274,
            18.10283125788391,
            18.430458896396825,
            20.297063376958924,
            20.339835941692186,
            20.45128969154962,
            20.65194359954263,
            26.865337649810918,
            26.891708400037594,
            26.928401903020596,
            26.982188610078822,
            35.99918039295528,
            36.143437637292124,
            36.20590373796886,
            36.99897052289654,
            38.41646100752512,
            38.443887087029026,
            38.48330953729179,
            38.551356463421875
        ]
    },
    "born_effective_charge": {
        "avg_abs_trace": 2.3207923809523807,
        "tensors": [
            [
                [
                    2.70543,
                    -0.0,
                    -0.14486
                ],
                [
                    0.00026,
                    2.56138,
                    0.00029
                ],
                [
                    -0.20937,
                    0.0,
                    2.93804
                ]
            ],
            [
                [
                    2.70555,
                    -0.0,
                    0.14492
                ],
                [
                    -0.00026,
                    2.56138,
                    0.00029
                ],
                [
                    0.20937,
                    0.0,
                    2.93804
                ]
            ],
            [
                [
                    2.70555,
                    -0.0,
                    -0.14492
                ],
                [
                    -0.00026,
                    2.56138,
                    -0.00029
                ],
                [
                    -0.20947,
                    0.0,
                    2.93814
                ]
            ],
            [
                [
                    2.70543,
                    -0.0,
                    0.14486
                ],
                [
                    0.00026,
                    2.56138,
                    -0.00029
                ],
                [
                    0.20947,
                    0.0,
                    2.93814
                ]
            ],
            [
                [
                    2.7456,
                    -0.0,
                    0.26938
                ],
                [
                    0.0004,
                    4.97616,
                    2e-05
                ],
                [
                    0.40785,
                    0.0,
                    2.81621
                ]
            ],
            [
                [
                    2.74578,
                    -0.0,
                    0.26942
                ],
                [
                    -0.0004,
                    4.97616,
                    -2e-05
                ],
                [
                    0.40806,
                    0.0,
                    2.8161
                ]
            ],
            [
                [
                    2.74578,
                    -0.0,
                    -0.26942
                ],
                [
                    -0.0004,
                    4.97616,
                    2e-05
                ],
                [
                    -0.40785,
                    0.0,
                    2.81621
                ]
            ],
            [
                [
                    2.7456,
                    -0.0,
                    -0.26938
                ],
                [
                    0.0004,
                    4.97616,
                    -2e-05
                ],
                [
                    -0.40806,
                    0.0,
                    2.8161
                ]
            ],
            [
                [
                    0.7846,
                    -0.0,
                    0.17513
                ],
                [
                    -0.00016,
                    3.24727,
                    -0.00113
                ],
                [
                    0.07378,
                    0.0,
                    1.59338
                ]
            ],
            [
                [
                    0.7847,
                    -0.0,
                    0.17505
                ],
                [
                    0.00016,
                    3.24727,
                    0.00113
                ],
                [
                    0.07385,
                    0.0,
                    1.59348
                ]
            ],
            [
                [
                    0.7847,
                    -0.0,
                    -0.17505
                ],
                [
                    0.00016,
                    3.24727,
                    -0.00113
                ],
                [
                    -0.07378,
                    0.0,
                    1.59338
                ]
            ],
            [
                [
                    0.7846,
                    -0.0,
                    -0.17513
                ],
                [
                    -0.00016,
                    3.24727,
                    0.00113
                ],
                [
                    -0.07385,
                    0.0,
                    1.59348
                ]
            ],
            [
                [
                    -1.19057,
                    -0.11132,
                    -0.0764
                ],
                [
                    0.00565,
                    -2.82789,
                    -0.03221
                ],
                [
                    0.08027,
                    -0.01704,
                    -1.87836
                ]
            ],
            [
                [
                    -1.33576,
                    -0.0,
                    -0.10464
                ],
                [
                    -0.00056,
                    -3.31665,
                    -0.00064
                ],
                [
                    -0.05639,
                    0.0,
                    -1.9701
                ]
            ],
            [
                [
                    -1.19062,
                    -0.11153,
                    0.07643
                ],
                [
                    0.00586,
                    -2.82869,
                    0.03292
                ],
                [
                    -0.08027,
                    0.01704,
                    -1.87836
                ]
            ],
            [
                [
                    -1.19057,
                    0.11132,
                    -0.0764
                ],
                [
                    -0.00586,
                    -2.82869,
                    0.03292
                ],
                [
                    0.08027,
                    0.01704,
                    -1.87836
                ]
            ],
            [
                [
                    -1.19062,
                    0.11153,
                    0.07643
                ],
                [
                    -0.00565,
                    -2.82789,
                    -0.03221
                ],
                [
                    -0.08027,
                    -0.01704,
                    -1.87836
                ]
            ],
            [
                [
                    -2.51871,
                    -0.0,
                    -0.08724
                ],
                [
                    0.0001,
                    -1.81159,
                    0.00016
                ],
                [
                    0.28369,
                    0.0,
                    -1.62057
                ]
            ],
            [
                [
                    -1.33582,
                    -0.0,
                    0.10487
                ],
                [
                    0.00056,
                    -3.31665,
                    -0.00064
                ],
                [
                    0.05639,
                    0.0,
                    -1.9701
                ]
            ],
            [
                [
                    -1.33582,
                    -0.0,
                    -0.10487
                ],
                [
                    0.00056,
                    -3.31665,
                    0.00064
                ],
                [
                    -0.05686,
                    0.0,
                    -1.97041
                ]
            ],
            [
                [
                    -1.19062,
                    -0.11153,
                    -0.07643
                ],
                [
                    0.00586,
                    -2.82869,
                    -0.03292
                ],
                [
                    0.08017,
                    -0.01689,
                    -1.87853
                ]
            ],
            [
                [
                    -1.19057,
                    0.11132,
                    0.0764
                ],
                [
                    -0.00586,
                    -2.82869,
                    -0.03292
                ],
                [
                    -0.08017,
                    -0.01689,
                    -1.87853
                ]
            ],
            [
                [
                    -2.51871,
                    -0.0,
                    0.08724
                ],
                [
                    0.0001,
                    -1.81159,
                    -0.00016
                ],
                [
                    -0.28349,
                    0.0,
                    -1.6205
                ]
            ],
            [
                [
                    -2.51898,
                    -0.0,
                    0.08704
                ],
                [
                    -0.0001,
                    -1.81159,
                    0.00016
                ],
                [
                    -0.28369,
                    0.0,
                    -1.62057
                ]
            ],
            [
                [
                    -1.19057,
                    -0.11132,
                    0.0764
                ],
                [
                    0.00565,
                    -2.82789,
                    0.03221
                ],
                [
                    -0.08017,
                    0.01689,
                    -1.87853
                ]
            ],
            [
                [
                    -2.51898,
                    -0.0,
                    -0.08704
                ],
                [
                    -0.0001,
                    -1.81159,
                    -0.00016
                ],
                [
                    0.28349,
                    0.0,
                    -1.6205
                ]
            ],
            [
                [
                    -1.19062,
                    0.11153,
                    -0.07643
                ],
                [
                    -0.00565,
                    -2.82789,
                    0.03221
                ],
                [
                    0.08017,
                    0.01689,
                    -1.87853
                ]
            ],
            [
                [
                    -1.33576,
                    -0.0,
                    0.10464
                ],
                [
                    -0.00056,
                    -3.31665,
                    0.00064
                ],
                [
                    0.05686,
                    0.0,
                    -1.97041
                ]
            ]
        ]
    },
    "band_gap": 3.5115000000000003,
    "is_direct": false,
    "formula": "BaBiBO4"
}