{
    "mp_id": "mp-555023",
    "nelements": 4,
    "nsites": 34,
    "elements": [
        "B",
        "Ca",
        "K",
        "O"
    ],
    "structure": {
        "@module": "pymatgen.core.structure",
        "@class": "Structure",
        "charge": null,
        "lattice": {
            "matrix": [
                [
                    10.57126447,
                    0.0,
                    0.0
                ],
                [
                    0.0,
                    5.72702945,
                    3.23982387
                ],
                [
                    0.0,
                    -5.72702945,
                    3.23982387
                ]
            ],
            "a": 10.57126447,
            "b": 6.57991831482649,
            "c": 6.57991831482649,
            "alpha": 121.00566123271597,
            "beta": 90.0,
            "gamma": 90.0,
            "volume": 392.2904637685963
        },
        "sites": [
            {
                "species": [
                    {
                        "element": "K",
                        "occu": 1
                    }
                ],
                "abc": [
                    0.75,
                    0.73001944,
                    0.89254831
                ],
                "xyz": [
                    7.928448352499999,
                    -0.9308076249652215,
                    5.256833727142192
                ],
                "label": "K",
                "properties": {}
            },
            {
                "species": [
                    {
                        "element": "K",
                        "occu": 1
                    }
                ],
                "abc": [
                    0.25,
                    0.89254831,
                    0.73001944
                ],
                "xyz": [
                    2.6428161175,
                    0.9308076249652215,
                    5.256833727142192
                ],
                "label": "K",
                "properties": {}
            },
            {
                "species": [
                    {
                        "element": "Ca",
                        "occu": 1
                    }
                ],
                "abc": [
                    0.0,
                    0.28157975,
                    0.28157975
                ],
                "xyz": [
                    0.0,
                    0.0,
                    1.8245375907172652
                ],
                "label": "Ca",
                "properties": {}
            },
            {
                "species": [
                    {
                        "element": "Ca",
                        "occu": 1
                    }
                ],
                "abc": [
                    0.47108292,
                    0.7088489,
                    0.13602827
                ],
                "xyz": [
                    4.9799421346198525,
                    3.2805606175775535,
                    2.737253222584048
                ],
                "label": "Ca",
                "properties": {}
            },
            {
                "species": [
                    {
                        "element": "Ca",
                        "occu": 1
                    }
                ],
                "abc": [
                    0.25,
                    0.39904953,
                    0.70684244
                ],
                "xyz": [
                    2.6428161175,
                    -1.7627390600711994,
                    3.5828952020473235
                ],
                "label": "Ca",
                "properties": {}
            },
            {
                "species": [
                    {
                        "element": "Ca",
                        "occu": 1
                    }
                ],
                "abc": [
                    0.52891708,
                    0.13602827,
                    0.7088489
                ],
                "xyz": [
                    5.591322335380148,
                    -3.2805606175775535,
                    2.737253222584048
                ],
                "label": "Ca",
                "properties": {}
            },
            {
                "species": [
                    {
                        "element": "Ca",
                        "occu": 1
                    }
                ],
                "abc": [
                    0.97108292,
                    0.13602827,
                    0.7088489
                ],
                "xyz": [
                    10.26557436961985,
                    -3.2805606175775535,
                    2.737253222584048
                ],
                "label": "Ca",
                "properties": {}
            },
            {
                "species": [
                    {
                        "element": "Ca",
                        "occu": 1
                    }
                ],
                "abc": [
                    0.75,
                    0.70684244,
                    0.39904953
                ],
                "xyz": [
                    7.928448352499999,
                    1.7627390600711994,
                    3.5828952020473235
                ],
                "label": "Ca",
                "properties": {}
            },
            {
                "species": [
                    {
                        "element": "Ca",
                        "occu": 1
                    }
                ],
                "abc": [
                    0.5,
                    0.28157975,
                    0.28157975
                ],
                "xyz": [
                    5.285632235,
                    0.0,
                    1.8245375907172652
                ],
                "label": "Ca",
                "properties": {}
            },
            {
                "species": [
                    {
                        "element": "Ca",
                        "occu": 1
                    }
                ],
                "abc": [
                    0.02891708,
                    0.7088489,
                    0.13602827
                ],
                "xyz": [
                    0.3056901003801476,
                    3.2805606175775535,
                    2.737253222584048
                ],
                "label": "Ca",
                "properties": {}
            },
            {
                "species": [
                    {
                        "element": "B",
                        "occu": 1
                    }
                ],
                "abc": [
                    0.75,
                    0.3036172,
                    0.95705993
                ],
                "xyz": [
                    7.928448352499999,
                    -3.742285758598398,
                    4.084371858137093
                ],
                "label": "B",
                "properties": {}
            },
            {
                "species": [
                    {
                        "element": "B",
                        "occu": 1
                    }
                ],
                "abc": [
                    0.75,
                    0.13527222,
                    0.37685359
                ],
                "xyz": [
                    7.928448352499999,
                    -1.3835436205613465,
                    1.6591974236810847
                ],
                "label": "B",
                "properties": {}
            },
            {
                "species": [
                    {
                        "element": "B",
                        "occu": 1
                    }
                ],
                "abc": [
                    0.0,
                    0.70872067,
                    0.70872067
                ],
                "xyz": [
                    0.0,
                    0.0,
                    4.592260287656786
                ],
                "label": "B",
                "properties": {}
            },
            {
                "species": [
                    {
                        "element": "B",
                        "occu": 1
                    }
                ],
                "abc": [
                    0.5,
                    0.70872067,
                    0.70872067
                ],
                "xyz": [
                    5.285632235,
                    0.0,
                    4.592260287656786
                ],
                "label": "B",
                "properties": {}
            },
            {
                "species": [
                    {
                        "element": "B",
                        "occu": 1
                    }
                ],
                "abc": [
                    0.25,
                    0.95705993,
                    0.3036172
                ],
                "xyz": [
                    2.6428161175,
                    3.742285758598398,
                    4.084371858137093
                ],
                "label": "B",
                "properties": {}
            },
            {
                "species": [
                    {
                        "element": "B",
                        "occu": 1
                    }
                ],
                "abc": [
                    0.25,
                    0.37685359,
                    0.13527222
                ],
                "xyz": [
                    2.6428161175,
                    1.3835436205613465,
                    1.6591974236810847
                ],
                "label": "B",
                "properties": {}
            },
            {
                "species": [
                    {
                        "element": "O",
                        "occu": 1
                    }
                ],
                "abc": [
                    0.36331509,
                    0.34211604,
                    0.01008093
                ],
                "xyz": [
                    3.840699902331852,
                    1.9015748534039894,
                    1.141056150347674
                ],
                "label": "O",
                "properties": {}
            },
            {
                "species": [
                    {
                        "element": "O",
                        "occu": 1
                    }
                ],
                "abc": [
                    0.25,
                    0.4287814,
                    0.36498895
                ],
                "xyz": [
                    2.6428161175,
                    0.3653412398376523,
                    2.5716761272282542
                ],
                "label": "O",
                "properties": {}
            },
            {
                "species": [
                    {
                        "element": "O",
                        "occu": 1
                    }
                ],
                "abc": [
                    0.52626944,
                    0.70487596,
                    0.4998579
                ],
                "xyz": [
                    5.563333432718796,
                    1.174144467401867,
                    3.9031255166252383
                ],
                "label": "O",
                "properties": {}
            },
            {
                "species": [
                    {
                        "element": "O",
                        "occu": 1
                    }
                ],
                "abc": [
                    0.0,
                    0.92071189,
                    0.92071189
                ],
                "xyz": [
                    0.0,
                    0.0,
                    5.965888717229628
                ],
                "label": "O",
                "properties": {}
            },
            {
                "species": [
                    {
                        "element": "O",
                        "occu": 1
                    }
                ],
                "abc": [
                    0.97373056,
                    0.70487596,
                    0.4998579
                ],
                "xyz": [
                    10.293563272281203,
                    1.174144467401867,
                    3.9031255166252383
                ],
                "label": "O",
                "properties": {}
            },
            {
                "species": [
                    {
                        "element": "O",
                        "occu": 1
                    }
                ],
                "abc": [
                    0.36293257,
                    0.04508877,
                    0.42829608
                ],
                "xyz": [
                    3.8366561822467875,
                    -2.1946395498252795,
                    1.5336835367263695
                ],
                "label": "O",
                "properties": {}
            },
            {
                "species": [
                    {
                        "element": "O",
                        "occu": 1
                    }
                ],
                "abc": [
                    0.02626944,
                    0.4998579,
                    0.70487596
                ],
                "xyz": [
                    0.2777011977187968,
                    -1.174144467401867,
                    3.9031255166252383
                ],
                "label": "O",
                "properties": {}
            },
            {
                "species": [
                    {
                        "element": "O",
                        "occu": 1
                    }
                ],
                "abc": [
                    0.25,
                    0.77468694,
                    0.07147277
                ],
                "xyz": [
                    2.6428161175,
                    4.027328261247307,
                    2.7414084262902776
                ],
                "label": "O",
                "properties": {}
            },
            {
                "species": [
                    {
                        "element": "O",
                        "occu": 1
                    }
                ],
                "abc": [
                    0.63706743,
                    0.42829608,
                    0.04508877
                ],
                "xyz": [
                    6.734608287753211,
                    2.1946395498252795,
                    1.5336835367263695
                ],
                "label": "O",
                "properties": {}
            },
            {
                "species": [
                    {
                        "element": "O",
                        "occu": 1
                    }
                ],
                "abc": [
                    0.13706743,
                    0.04508877,
                    0.42829608
                ],
                "xyz": [
                    1.4489760527532118,
                    -2.1946395498252795,
                    1.5336835367263695
                ],
                "label": "O",
                "properties": {}
            },
            {
                "species": [
                    {
                        "element": "O",
                        "occu": 1
                    }
                ],
                "abc": [
                    0.63668491,
                    0.01008093,
                    0.34211604
                ],
                "xyz": [
                    6.730564567668147,
                    -1.9015748534039894,
                    1.141056150347674
                ],
                "label": "O",
                "properties": {}
            },
            {
                "species": [
                    {
                        "element": "O",
                        "occu": 1
                    }
                ],
                "abc": [
                    0.86331509,
                    0.01008093,
                    0.34211604
                ],
                "xyz": [
                    9.12633213733185,
                    -1.9015748534039894,
                    1.141056150347674
                ],
                "label": "O",
                "properties": {}
            },
            {
                "species": [
                    {
                        "element": "O",
                        "occu": 1
                    }
                ],
                "abc": [
                    0.86293257,
                    0.42829608,
                    0.04508877
                ],
                "xyz": [
                    9.122288417246788,
                    2.1946395498252795,
                    1.5336835367263695
                ],
                "label": "O",
                "properties": {}
            },
            {
                "species": [
                    {
                        "element": "O",
                        "occu": 1
                    }
                ],
                "abc": [
                    0.75,
                    0.36498895,
                    0.4287814
                ],
                "xyz": [
                    7.928448352499999,
                    -0.3653412398376523,
                    2.5716761272282542
                ],
                "label": "O",
                "properties": {}
            },
            {
                "species": [
                    {
                        "element": "O",
                        "occu": 1
                    }
                ],
                "abc": [
                    0.47373056,
                    0.4998579,
                    0.70487596
                ],
                "xyz": [
                    5.007931037281203,
                    -1.174144467401867,
                    3.9031255166252383
                ],
                "label": "O",
                "properties": {}
            },
            {
                "species": [
                    {
                        "element": "O",
                        "occu": 1
                    }
                ],
                "abc": [
                    0.5,
                    0.92071189,
                    0.92071189
                ],
                "xyz": [
                    5.285632235,
                    0.0,
                    5.965888717229628
                ],
                "label": "O",
                "properties": {}
            },
            {
                "species": [
                    {
                        "element": "O",
                        "occu": 1
                    }
                ],
                "abc": [
                    0.13668491,
                    0.34211604,
                    0.01008093
                ],
                "xyz": [
                    1.4449323326681476,
                    1.9015748534039894,
                    1.141056150347674
                ],
                "label": "O",
                "properties": {}
            },
            {
                "species": [
                    {
                        "element": "O",
                        "occu": 1
                    }
                ],
                "abc": [
                    0.75,
                    0.07147277,
                    0.77468694
                ],
                "xyz": [
                    7.928448352499999,
                    -4.027328261247307,
                    2.7414084262902776
                ],
                "label": "O",
                "properties": {}
            }
        ]
    },
    "spacegroup": {
        "source": "spglib",
        "symbol": "Ama2",
        "number": 40,
        "point_group": "mm2",
        "crystal_system": "orthorhombic",
        "hall": "A 2 -2a"
    },
    "dielectric": {
        "epsilon_ionic": [
            [
                26.04149089,
                -0.0,
                4.81e-06
            ],
            [
                -0.0,
                8.14013925,
                -3.28e-06
            ],
            [
                4.81e-06,
                -3.28e-06,
                6.01276986
            ]
        ],
        "epsilon_ionic_avg": 13.398133333333329,
        "epsilon_ionic_eig": [
            26.041490890001146,
            6.012769859993784,
            8.140139250005058
        ],
        "epsilon_electronic": [
            [
                3.18511899,
                0.0,
                0.0
            ],
            [
                0.0,
                3.16606306,
                0.0
            ],
            [
                0.0,
                0.0,
                3.32236483
            ]
        ],
        "epsilon_electronic_avg": 3.224515626666667,
        "epsilon_electronic_eig": [
            3.18511899,
            3.16606306,
            3.32236483
        ]
    },
    "phonon": {
        "lowest_freq": -0.15764803664348997,
        "frequency": [
            -0.15764803664348997,
            -0.11072668623796507,
            -0.04781066271731843,
            1.6058568449975865,
            2.469731479997705,
            3.021300005455869,
            3.0600163136976786,
            3.4199173874778417,
            3.4949502297707116,
            3.580597424274883,
            3.7622389992635403,
            3.9192962896224874,
            4.351482060029596,
            4.356919134294364,
            4.441278946233517,
            4.456534651709884,
            5.049631807930176,
            5.086469455058801,
            5.3723210777559425,
            5.398323853484821,
            5.46678918926984,
            5.690378821359175,
            5.693924053223411,
            5.70316370949517,
            5.704385008639799,
            5.869642019895237,
            5.936403613768161,
            5.959472916385379,
            6.189549358024199,
            6.213256050085861,
            6.302723282936615,
            6.587353451347535,
            6.620644241206904,
            6.695218125185184,
            6.908717507470629,
            6.96955493402937,
            7.006377464880746,
            7.051060283032322,
            7.085800279618858,
            7.180972137418763,
            7.41171937797621,
            7.454242692628074,
            7.554134048822503,
            7.563230600499166,
            7.752611096453071,
            7.775355655991809,
            7.843210116671151,
            7.981564078599309,
            8.084266127438587,
            8.250111883361091,
            8.437250696598525,
            8.580408477694688,
            8.672925220019136,
            8.744909207731231,
            8.911125293270818,
            8.91858770467154,
            9.130505264284258,
            9.30014956802543,
            9.468850375959452,
            9.522967931448129,
            9.856793278519168,
            9.878276500435028,
            9.983976121064758,
            10.268423681742119,
            10.322028794132112,
            10.808171962228329,
            16.419900749797293,
            16.478724005997133,
            17.070351940928287,
            17.140747061962767,
            17.18231409343282,
            17.441820159405605,
            17.69116979003495,
            17.808083152985294,
            17.890559284798584,
            18.21377874934501,
            18.232379526288902,
            18.26817616811393,
            20.815090675099345,
            20.81549569377762,
            21.696154647163798,
            21.699857029944805,
            22.150206618341418,
            22.3682447021416,
            26.607423998166638,
            26.693781130094493,
            27.050466209914024,
            27.22995011953916,
            27.24545351971113,
            27.375314834810233,
            34.61157625565614,
            34.74671270674719,
            36.11547095362515,
            36.71430909183281,
            36.858890446657824,
            37.54780962271002,
            37.720976418859834,
            37.841268717578416,
            37.8507294232628,
            38.12741514188201,
            38.48210270597314,
            38.642203897977765
        ]
    },
    "born_effective_charge": {
        "avg_abs_trace": 1.9859382352941177,
        "tensors": [
            [
                [
                    1.17801,
                    0.0,
                    -1e-05
                ],
                [
                    0.0,
                    1.19081,
                    0.01855
                ],
                [
                    -0.0,
                    0.01621,
                    1.22939
                ]
            ],
            [
                [
                    1.17801,
                    -0.0,
                    -1e-05
                ],
                [
                    0.0,
                    1.1908,
                    -0.01855
                ],
                [
                    -0.0,
                    -0.01621,
                    1.22939
                ]
            ],
            [
                [
                    2.43031,
                    -0.06537,
                    -0.0
                ],
                [
                    -0.15008,
                    2.3075,
                    3e-05
                ],
                [
                    -0.0,
                    0.0,
                    2.66697
                ]
            ],
            [
                [
                    2.49295,
                    0.08481,
                    -0.00232
                ],
                [
                    0.0624,
                    2.45635,
                    0.00393
                ],
                [
                    0.0326,
                    -0.00191,
                    2.4389
                ]
            ],
            [
                [
                    2.26971,
                    -1e-05,
                    -0.0
                ],
                [
                    0.0,
                    2.42033,
                    -0.2948
                ],
                [
                    -0.0,
                    -0.30392,
                    2.74194
                ]
            ],
            [
                [
                    2.49296,
                    0.0848,
                    0.00233
                ],
                [
                    0.06239,
                    2.45632,
                    -0.00394
                ],
                [
                    -0.0326,
                    0.00191,
                    2.4389
                ]
            ],
            [
                [
                    2.49295,
                    -0.08481,
                    -0.00232
                ],
                [
                    -0.06239,
                    2.45632,
                    -0.00394
                ],
                [
                    0.0326,
                    0.00191,
                    2.4389
                ]
            ],
            [
                [
                    2.26971,
                    1e-05,
                    -0.0
                ],
                [
                    0.0,
                    2.42032,
                    0.29479
                ],
                [
                    -0.0,
                    0.30392,
                    2.74194
                ]
            ],
            [
                [
                    2.43031,
                    0.06537,
                    -0.0
                ],
                [
                    0.15008,
                    2.3075,
                    3e-05
                ],
                [
                    -0.0,
                    0.0,
                    2.66697
                ]
            ],
            [
                [
                    2.49296,
                    -0.0848,
                    0.00233
                ],
                [
                    -0.0624,
                    2.45635,
                    0.00393
                ],
                [
                    -0.0326,
                    -0.00191,
                    2.4389
                ]
            ],
            [
                [
                    2.56745,
                    0.0,
                    -0.0
                ],
                [
                    0.0,
                    0.63828,
                    0.29904
                ],
                [
                    -0.0,
                    0.42997,
                    2.65553
                ]
            ],
            [
                [
                    2.5751,
                    0.0,
                    -0.0
                ],
                [
                    0.0,
                    1.86945,
                    1.17892
                ],
                [
                    -0.0,
                    1.04436,
                    1.43884
                ]
            ],
            [
                [
                    0.561,
                    0.61529,
                    -0.0
                ],
                [
                    0.51826,
                    2.46812,
                    2e-05
                ],
                [
                    -0.0,
                    0.0,
                    2.6563
                ]
            ],
            [
                [
                    0.561,
                    -0.61529,
                    -0.0
                ],
                [
                    -0.51826,
                    2.46812,
                    2e-05
                ],
                [
                    -0.0,
                    0.0,
                    2.6563
                ]
            ],
            [
                [
                    2.56745,
                    -0.0,
                    -0.0
                ],
                [
                    0.0,
                    0.63826,
                    -0.299
                ],
                [
                    -0.0,
                    -0.42997,
                    2.65553
                ]
            ],
            [
                [
                    2.5751,
                    -0.0,
                    -0.0
                ],
                [
                    0.0,
                    1.86948,
                    -1.17895
                ],
                [
                    -0.0,
                    -1.04436,
                    1.43884
                ]
            ],
            [
                [
                    -2.37717,
                    0.27776,
                    -0.26231
                ],
                [
                    0.27236,
                    -1.74609,
                    0.29675
                ],
                [
                    -0.29147,
                    0.23315,
                    -1.60628
                ]
            ],
            [
                [
                    -1.56089,
                    2e-05,
                    -4e-05
                ],
                [
                    0.0,
                    -2.18588,
                    0.7794
                ],
                [
                    -0.0,
                    0.74625,
                    -1.78202
                ]
            ],
            [
                [
                    -1.34876,
                    0.30981,
                    -0.11048
                ],
                [
                    0.27173,
                    -2.29208,
                    0.31096
                ],
                [
                    -0.10628,
                    0.31377,
                    -1.99356
                ]
            ],
            [
                [
                    -1.10563,
                    -0.09908,
                    2e-05
                ],
                [
                    -0.09106,
                    -1.72566,
                    -6e-05
                ],
                [
                    -0.0,
                    0.0,
                    -2.6561
                ]
            ],
            [
                [
                    -1.34876,
                    -0.30978,
                    0.11047
                ],
                [
                    -0.27173,
                    -2.29208,
                    0.31096
                ],
                [
                    0.10628,
                    0.31377,
                    -1.99356
                ]
            ],
            [
                [
                    -2.38271,
                    -0.18298,
                    0.31537
                ],
                [
                    -0.18008,
                    -1.30107,
                    0.06268
                ],
                [
                    0.32312,
                    0.1255,
                    -2.01475
                ]
            ],
            [
                [
                    -1.34876,
                    -0.30981,
                    -0.11048
                ],
                [
                    -0.27169,
                    -2.2921,
                    -0.31096
                ],
                [
                    -0.10628,
                    -0.31377,
                    -1.99356
                ]
            ],
            [
                [
                    -1.68363,
                    -0.0,
                    1e-05
                ],
                [
                    0.0,
                    -1.21719,
                    0.2045
                ],
                [
                    -0.0,
                    0.25561,
                    -2.59947
                ]
            ],
            [
                [
                    -2.38271,
                    -0.18298,
                    -0.31534
                ],
                [
                    -0.18006,
                    -1.30107,
                    -0.0627
                ],
                [
                    -0.32312,
                    -0.1255,
                    -2.01475
                ]
            ],
            [
                [
                    -2.38271,
                    0.18298,
                    -0.31534
                ],
                [
                    0.18008,
                    -1.30107,
                    0.06268
                ],
                [
                    -0.32312,
                    0.1255,
                    -2.01475
                ]
            ],
            [
                [
                    -2.37722,
                    0.27775,
                    0.2623
                ],
                [
                    0.27227,
                    -1.74603,
                    -0.2967
                ],
                [
                    0.29147,
                    -0.23315,
                    -1.60628
                ]
            ],
            [
                [
                    -2.37717,
                    -0.27776,
                    -0.26231
                ],
                [
                    -0.27227,
                    -1.74603,
                    -0.2967
                ],
                [
                    -0.29147,
                    -0.23315,
                    -1.60628
                ]
            ],
            [
                [
                    -2.38271,
                    0.18298,
                    0.31537
                ],
                [
                    0.18006,
                    -1.30107,
                    -0.0627
                ],
                [
                    0.32312,
                    -0.1255,
                    -2.01475
                ]
            ],
            [
                [
                    -1.56089,
                    -2e-05,
                    -4e-05
                ],
                [
                    0.0,
                    -2.18589,
                    -0.77937
                ],
                [
                    -0.0,
                    -0.74625,
                    -1.78202
                ]
            ],
            [
                [
                    -1.34876,
                    0.30978,
                    0.11047
                ],
                [
                    0.27169,
                    -2.2921,
                    -0.31096
                ],
                [
                    0.10628,
                    -0.31377,
                    -1.99356
                ]
            ],
            [
                [
                    -1.10563,
                    0.09908,
                    2e-05
                ],
                [
                    0.09106,
                    -1.72566,
                    -6e-05
                ],
                [
                    -0.0,
                    0.0,
                    -2.6561
                ]
            ],
            [
                [
                    -2.37722,
                    -0.27775,
                    0.2623
                ],
                [
                    -0.27236,
                    -1.74609,
                    0.29675
                ],
                [
                    0.29147,
                    0.23315,
                    -1.60628
                ]
            ],
            [
                [
                    -1.68363,
                    0.0,
                    1e-05
                ],
                [
                    0.0,
                    -1.21721,
                    -0.20454
                ],
                [
                    -0.0,
                    -0.25561,
                    -2.59947
                ]
            ]
        ]
    },
    "band_gap": 4.6867,
    "is_direct": false,
    "formula": "KCa4(BO3)3"
}