{
    "mp_id": "mp-562072",
    "nelements": 3,
    "nsites": 28,
    "elements": [
        "Cs",
        "O",
        "Sb"
    ],
    "structure": {
        "@module": "pymatgen.core.structure",
        "@class": "Structure",
        "charge": null,
        "lattice": {
            "matrix": [
                [
                    9.10905189,
                    0.0,
                    0.0
                ],
                [
                    0.0,
                    9.10905189,
                    0.0
                ],
                [
                    0.0,
                    0.0,
                    9.10905189
                ]
            ],
            "a": 9.10905189,
            "b": 9.10905189,
            "c": 9.10905189,
            "alpha": 90.0,
            "beta": 90.0,
            "gamma": 90.0,
            "volume": 755.8219986466354
        },
        "sites": [
            {
                "species": [
                    {
                        "element": "Cs",
                        "occu": 1
                    }
                ],
                "abc": [
                    0.27699065,
                    0.72300935,
                    0.22300935
                ],
                "xyz": [
                    2.5231222038948284,
                    6.585929686105171,
                    2.0314037411051715
                ],
                "label": "Cs",
                "properties": {}
            },
            {
                "species": [
                    {
                        "element": "Cs",
                        "occu": 1
                    }
                ],
                "abc": [
                    0.48354602,
                    0.98354602,
                    0.51645398
                ],
                "xyz": [
                    4.404645787382978,
                    8.959171732382979,
                    4.704406102617022
                ],
                "label": "Cs",
                "properties": {}
            },
            {
                "species": [
                    {
                        "element": "Cs",
                        "occu": 1
                    }
                ],
                "abc": [
                    0.22300935,
                    0.27699065,
                    0.72300935
                ],
                "xyz": [
                    2.0314037411051715,
                    2.5231222038948284,
                    6.585929686105171
                ],
                "label": "Cs",
                "properties": {}
            },
            {
                "species": [
                    {
                        "element": "Cs",
                        "occu": 1
                    }
                ],
                "abc": [
                    0.01645398,
                    0.01645398,
                    0.01645398
                ],
                "xyz": [
                    0.1498801576170222,
                    0.1498801576170222,
                    0.1498801576170222
                ],
                "label": "Cs",
                "properties": {}
            },
            {
                "species": [
                    {
                        "element": "Cs",
                        "occu": 1
                    }
                ],
                "abc": [
                    0.77311115,
                    0.22688885,
                    0.72688885
                ],
                "xyz": [
                    7.042309582087573,
                    2.0667423079124263,
                    6.621268252912427
                ],
                "label": "Cs",
                "properties": {}
            },
            {
                "species": [
                    {
                        "element": "Cs",
                        "occu": 1
                    }
                ],
                "abc": [
                    0.72688885,
                    0.77311115,
                    0.22688885
                ],
                "xyz": [
                    6.621268252912427,
                    7.042309582087573,
                    2.0667423079124263
                ],
                "label": "Cs",
                "properties": {}
            },
            {
                "species": [
                    {
                        "element": "Cs",
                        "occu": 1
                    }
                ],
                "abc": [
                    0.51645398,
                    0.48354602,
                    0.98354602
                ],
                "xyz": [
                    4.704406102617022,
                    4.404645787382978,
                    8.959171732382979
                ],
                "label": "Cs",
                "properties": {}
            },
            {
                "species": [
                    {
                        "element": "Cs",
                        "occu": 1
                    }
                ],
                "abc": [
                    0.98354602,
                    0.51645398,
                    0.48354602
                ],
                "xyz": [
                    8.959171732382979,
                    4.704406102617022,
                    4.404645787382978
                ],
                "label": "Cs",
                "properties": {}
            },
            {
                "species": [
                    {
                        "element": "Cs",
                        "occu": 1
                    }
                ],
                "abc": [
                    0.22688885,
                    0.72688885,
                    0.77311115
                ],
                "xyz": [
                    2.0667423079124263,
                    6.621268252912427,
                    7.042309582087573
                ],
                "label": "Cs",
                "properties": {}
            },
            {
                "species": [
                    {
                        "element": "Cs",
                        "occu": 1
                    }
                ],
                "abc": [
                    0.72300935,
                    0.22300935,
                    0.27699065
                ],
                "xyz": [
                    6.585929686105171,
                    2.0314037411051715,
                    2.5231222038948284
                ],
                "label": "Cs",
                "properties": {}
            },
            {
                "species": [
                    {
                        "element": "Cs",
                        "occu": 1
                    }
                ],
                "abc": [
                    0.77699065,
                    0.77699065,
                    0.77699065
                ],
                "xyz": [
                    7.077648148894829,
                    7.077648148894829,
                    7.077648148894829
                ],
                "label": "Cs",
                "properties": {}
            },
            {
                "species": [
                    {
                        "element": "Cs",
                        "occu": 1
                    }
                ],
                "abc": [
                    0.27311115,
                    0.27311115,
                    0.27311115
                ],
                "xyz": [
                    2.4877836370875737,
                    2.4877836370875737,
                    2.4877836370875737
                ],
                "label": "Cs",
                "properties": {}
            },
            {
                "species": [
                    {
                        "element": "Sb",
                        "occu": 1
                    }
                ],
                "abc": [
                    0.50282813,
                    0.50282813,
                    0.50282813
                ],
                "xyz": [
                    4.580287527921666,
                    4.580287527921666,
                    4.580287527921666
                ],
                "label": "Sb",
                "properties": {}
            },
            {
                "species": [
                    {
                        "element": "Sb",
                        "occu": 1
                    }
                ],
                "abc": [
                    0.99717187,
                    0.49717187,
                    0.00282813
                ],
                "xyz": [
                    9.083290307078334,
                    4.528764362078334,
                    0.0257615829216657
                ],
                "label": "Sb",
                "properties": {}
            },
            {
                "species": [
                    {
                        "element": "Sb",
                        "occu": 1
                    }
                ],
                "abc": [
                    0.49717187,
                    0.00282813,
                    0.99717187
                ],
                "xyz": [
                    4.528764362078334,
                    0.0257615829216657,
                    9.083290307078334
                ],
                "label": "Sb",
                "properties": {}
            },
            {
                "species": [
                    {
                        "element": "Sb",
                        "occu": 1
                    }
                ],
                "abc": [
                    0.00282813,
                    0.99717187,
                    0.49717187
                ],
                "xyz": [
                    0.0257615829216657,
                    9.083290307078334,
                    4.528764362078334
                ],
                "label": "Sb",
                "properties": {}
            },
            {
                "species": [
                    {
                        "element": "O",
                        "occu": 1
                    }
                ],
                "abc": [
                    0.46143021,
                    0.00526702,
                    0.20910503
                ],
                "xyz": [
                    4.203191726503597,
                    0.0479775584856678,
                    1.9047485687300068
                ],
                "label": "O",
                "properties": {}
            },
            {
                "species": [
                    {
                        "element": "O",
                        "occu": 1
                    }
                ],
                "abc": [
                    0.70910503,
                    0.03856979,
                    0.99473298
                ],
                "xyz": [
                    6.459274513730007,
                    0.3513342184964031,
                    9.061074331514332
                ],
                "label": "O",
                "properties": {}
            },
            {
                "species": [
                    {
                        "element": "O",
                        "occu": 1
                    }
                ],
                "abc": [
                    0.00526702,
                    0.20910503,
                    0.46143021
                ],
                "xyz": [
                    0.0479775584856678,
                    1.9047485687300068,
                    4.203191726503597
                ],
                "label": "O",
                "properties": {}
            },
            {
                "species": [
                    {
                        "element": "O",
                        "occu": 1
                    }
                ],
                "abc": [
                    0.96143021,
                    0.49473298,
                    0.79089497
                ],
                "xyz": [
                    8.757717671503597,
                    4.506548386514332,
                    7.204303321269993
                ],
                "label": "O",
                "properties": {}
            },
            {
                "species": [
                    {
                        "element": "O",
                        "occu": 1
                    }
                ],
                "abc": [
                    0.03856979,
                    0.99473298,
                    0.70910503
                ],
                "xyz": [
                    0.3513342184964031,
                    9.061074331514332,
                    6.459274513730007
                ],
                "label": "O",
                "properties": {}
            },
            {
                "species": [
                    {
                        "element": "O",
                        "occu": 1
                    }
                ],
                "abc": [
                    0.49473298,
                    0.79089497,
                    0.96143021
                ],
                "xyz": [
                    4.506548386514332,
                    7.204303321269993,
                    8.757717671503597
                ],
                "label": "O",
                "properties": {}
            },
            {
                "species": [
                    {
                        "element": "O",
                        "occu": 1
                    }
                ],
                "abc": [
                    0.79089497,
                    0.96143021,
                    0.49473298
                ],
                "xyz": [
                    7.204303321269993,
                    8.757717671503597,
                    4.506548386514332
                ],
                "label": "O",
                "properties": {}
            },
            {
                "species": [
                    {
                        "element": "O",
                        "occu": 1
                    }
                ],
                "abc": [
                    0.20910503,
                    0.46143021,
                    0.00526702
                ],
                "xyz": [
                    1.9047485687300068,
                    4.203191726503597,
                    0.0479775584856678
                ],
                "label": "O",
                "properties": {}
            },
            {
                "species": [
                    {
                        "element": "O",
                        "occu": 1
                    }
                ],
                "abc": [
                    0.99473298,
                    0.70910503,
                    0.03856979
                ],
                "xyz": [
                    9.061074331514332,
                    6.459274513730007,
                    0.3513342184964031
                ],
                "label": "O",
                "properties": {}
            },
            {
                "species": [
                    {
                        "element": "O",
                        "occu": 1
                    }
                ],
                "abc": [
                    0.53856979,
                    0.50526702,
                    0.29089497
                ],
                "xyz": [
                    4.905860163496404,
                    4.602503503485668,
                    2.649777376269993
                ],
                "label": "O",
                "properties": {}
            },
            {
                "species": [
                    {
                        "element": "O",
                        "occu": 1
                    }
                ],
                "abc": [
                    0.29089497,
                    0.53856979,
                    0.50526702
                ],
                "xyz": [
                    2.649777376269993,
                    4.905860163496404,
                    4.602503503485668
                ],
                "label": "O",
                "properties": {}
            },
            {
                "species": [
                    {
                        "element": "O",
                        "occu": 1
                    }
                ],
                "abc": [
                    0.50526702,
                    0.29089497,
                    0.53856979
                ],
                "xyz": [
                    4.602503503485668,
                    2.649777376269993,
                    4.905860163496404
                ],
                "label": "O",
                "properties": {}
            }
        ]
    },
    "spacegroup": {
        "source": "spglib",
        "symbol": "P2_13",
        "number": 198,
        "point_group": "23",
        "crystal_system": "cubic",
        "hall": "P 2ac 2ab 3"
    },
    "dielectric": {
        "epsilon_ionic": [
            [
                5.13473337,
                -1.8e-07,
                -1.8e-07
            ],
            [
                -1.8e-07,
                5.13441195,
                -1.8e-07
            ],
            [
                -1.8e-07,
                -1.8e-07,
                5.13463524
            ]
        ],
        "epsilon_ionic_avg": 5.134593519999999,
        "epsilon_ionic_eig": [
            5.134733370430604,
            5.134411949753932,
            5.134635239815462
        ],
        "epsilon_electronic": [
            [
                3.50280631,
                -0.0,
                0.0
            ],
            [
                -0.0,
                3.50280631,
                -0.0
            ],
            [
                0.0,
                0.0,
                3.50280631
            ]
        ],
        "epsilon_electronic_avg": 3.50280631,
        "epsilon_electronic_eig": [
            3.50280631,
            3.50280631,
            3.50280631
        ]
    },
    "phonon": {
        "lowest_freq": -0.04542273218873986,
        "frequency": [
            -0.04542273218873986,
            -0.04542273218873986,
            -0.04542273218873986,
            1.1161642426372516,
            1.1161642426372516,
            1.3288603793789278,
            1.3288603793789278,
            1.3288603793789278,
            1.3640201137566286,
            1.5064606443764246,
            1.5064606443764246,
            1.5064606443764246,
            1.5544282640172293,
            1.5544282640172293,
            1.628419262851553,
            1.628419262851553,
            1.628419262851553,
            1.6465022537218204,
            1.6465022537218204,
            1.6465022537218204,
            1.6959333933961853,
            1.7861530689860001,
            1.7861530689860001,
            1.7861530689860001,
            1.878733269535717,
            1.878733269535717,
            2.087939984995893,
            2.087939984995893,
            2.087939984995893,
            2.120883997757771,
            2.1567457935129606,
            2.1567457935129606,
            2.1567457935129606,
            2.4224869827192235,
            2.4224869827192235,
            2.4224869827192235,
            2.674749107929326,
            2.674749107929326,
            2.674749107929326,
            2.9614037503984183,
            2.9614037503984183,
            3.045827189528021,
            3.045827189528021,
            3.045827189528021,
            3.1529669921583525,
            3.1623151987406763,
            3.1623151987406763,
            3.1623151987406763,
            3.741142147373827,
            3.741142147373827,
            3.741142147373827,
            3.966591108330196,
            3.966591108330196,
            4.008443723268196,
            4.073317703821054,
            4.073317703821054,
            4.073317703821054,
            4.491328008117733,
            4.491328008117733,
            4.491328008117733,
            7.622254044329747,
            7.622254044329747,
            7.633443293933147,
            7.633443293933147,
            7.633443293933147,
            8.595476324955083,
            8.595476324955083,
            8.595476324955083,
            8.627631450141378,
            9.16607390851034,
            9.16607390851034,
            9.16607390851034,
            17.436113064155382,
            17.436113064155382,
            17.654735846547,
            17.654735846547,
            17.654735846547,
            18.08040776318727,
            18.08040776318727,
            18.08040776318727,
            19.42178746701383,
            19.512908970362044,
            19.512908970362044,
            19.512908970362044
        ]
    },
    "born_effective_charge": {
        "avg_abs_trace": 1.6500626190476193,
        "tensors": [
            [
                [
                    1.24867,
                    0.12267,
                    0.12717
                ],
                [
                    0.12704,
                    1.24867,
                    -0.12263
                ],
                [
                    0.12265,
                    -0.12705,
                    1.24875
                ]
            ],
            [
                [
                    1.47641,
                    -0.0571,
                    -0.02356
                ],
                [
                    0.02345,
                    1.47621,
                    0.05703
                ],
                [
                    0.05688,
                    -0.02378,
                    1.47626
                ]
            ],
            [
                [
                    1.24866,
                    0.12268,
                    -0.12707
                ],
                [
                    0.12714,
                    1.24869,
                    0.12261
                ],
                [
                    -0.12265,
                    0.12705,
                    1.24875
                ]
            ],
            [
                [
                    1.47633,
                    -0.05703,
                    0.02386
                ],
                [
                    0.02376,
                    1.47614,
                    -0.05696
                ],
                [
                    -0.05688,
                    0.02378,
                    1.47626
                ]
            ],
            [
                [
                    1.29189,
                    0.01561,
                    -0.01339
                ],
                [
                    -0.01334,
                    1.29201,
                    -0.01578
                ],
                [
                    0.0157,
                    0.01326,
                    1.29188
                ]
            ],
            [
                [
                    1.29191,
                    0.01572,
                    0.01335
                ],
                [
                    -0.01336,
                    1.29198,
                    0.01566
                ],
                [
                    -0.0157,
                    -0.01326,
                    1.29188
                ]
            ],
            [
                [
                    1.47633,
                    0.05703,
                    -0.02386
                ],
                [
                    -0.02345,
                    1.47621,
                    -0.05703
                ],
                [
                    0.05695,
                    0.02348,
                    1.47634
                ]
            ],
            [
                [
                    1.47641,
                    0.0571,
                    0.02356
                ],
                [
                    -0.02376,
                    1.47614,
                    0.05696
                ],
                [
                    -0.05695,
                    -0.02348,
                    1.47634
                ]
            ],
            [
                [
                    1.29191,
                    -0.01572,
                    -0.01335
                ],
                [
                    0.01334,
                    1.29201,
                    0.01578
                ],
                [
                    0.01559,
                    -0.01329,
                    1.29185
                ]
            ],
            [
                [
                    1.24866,
                    -0.12268,
                    0.12707
                ],
                [
                    -0.12704,
                    1.24867,
                    0.12263
                ],
                [
                    0.12264,
                    0.12715,
                    1.24876
                ]
            ],
            [
                [
                    1.24867,
                    -0.12267,
                    -0.12717
                ],
                [
                    -0.12714,
                    1.24869,
                    -0.12261
                ],
                [
                    -0.12264,
                    -0.12715,
                    1.24876
                ]
            ],
            [
                [
                    1.29189,
                    -0.01561,
                    0.01339
                ],
                [
                    0.01336,
                    1.29198,
                    -0.01566
                ],
                [
                    -0.01559,
                    0.01329,
                    1.29185
                ]
            ],
            [
                [
                    1.75806,
                    -0.26022,
                    -0.20287
                ],
                [
                    -0.20287,
                    1.75808,
                    -0.26021
                ],
                [
                    -0.26022,
                    -0.20287,
                    1.75806
                ]
            ],
            [
                [
                    1.75856,
                    -0.26042,
                    0.20334
                ],
                [
                    -0.20334,
                    1.75858,
                    0.26042
                ],
                [
                    0.26022,
                    0.20287,
                    1.75806
                ]
            ],
            [
                [
                    1.75856,
                    0.26042,
                    -0.20334
                ],
                [
                    0.20287,
                    1.75808,
                    0.26021
                ],
                [
                    -0.26042,
                    0.20334,
                    1.75856
                ]
            ],
            [
                [
                    1.75806,
                    0.26022,
                    0.20287
                ],
                [
                    0.20334,
                    1.75858,
                    -0.26042
                ],
                [
                    0.26042,
                    -0.20334,
                    1.75856
                ]
            ],
            [
                [
                    -1.4269,
                    0.02853,
                    0.38999
                ],
                [
                    0.0698,
                    -1.48545,
                    -0.34248
                ],
                [
                    0.07856,
                    0.02156,
                    -2.86297
                ]
            ],
            [
                [
                    -2.86297,
                    -0.07856,
                    -0.02156
                ],
                [
                    -0.39055,
                    -1.42654,
                    0.02834
                ],
                [
                    0.34248,
                    0.06994,
                    -1.48531
                ]
            ],
            [
                [
                    -1.48547,
                    -0.34249,
                    0.0698
                ],
                [
                    0.02156,
                    -2.86294,
                    0.07856
                ],
                [
                    0.02853,
                    0.38999,
                    -1.42689
                ]
            ],
            [
                [
                    -1.4269,
                    -0.02853,
                    -0.38999
                ],
                [
                    -0.06994,
                    -1.48529,
                    -0.34249
                ],
                [
                    -0.07814,
                    0.0216,
                    -2.86328
                ]
            ],
            [
                [
                    -1.42656,
                    0.02833,
                    -0.39055
                ],
                [
                    0.06994,
                    -1.48529,
                    0.34249
                ],
                [
                    -0.07856,
                    -0.02156,
                    -2.86297
                ]
            ],
            [
                [
                    -1.48531,
                    -0.34249,
                    -0.06994
                ],
                [
                    0.02161,
                    -2.86326,
                    -0.07814
                ],
                [
                    -0.02853,
                    -0.38999,
                    -1.42689
                ]
            ],
            [
                [
                    -2.86328,
                    -0.07814,
                    0.0216
                ],
                [
                    -0.39,
                    -1.42688,
                    -0.02852
                ],
                [
                    -0.34248,
                    -0.06994,
                    -1.48531
                ]
            ],
            [
                [
                    -2.86297,
                    0.07856,
                    0.02156
                ],
                [
                    0.39,
                    -1.42688,
                    0.02852
                ],
                [
                    -0.34249,
                    0.0698,
                    -1.48546
                ]
            ],
            [
                [
                    -1.48531,
                    0.34249,
                    0.06994
                ],
                [
                    -0.02156,
                    -2.86294,
                    -0.07856
                ],
                [
                    0.02833,
                    -0.39055,
                    -1.42656
                ]
            ],
            [
                [
                    -1.42656,
                    -0.02833,
                    0.39055
                ],
                [
                    -0.0698,
                    -1.48545,
                    0.34248
                ],
                [
                    0.07814,
                    -0.0216,
                    -2.86328
                ]
            ],
            [
                [
                    -2.86328,
                    0.07814,
                    -0.0216
                ],
                [
                    0.39055,
                    -1.42654,
                    -0.02834
                ],
                [
                    0.34249,
                    -0.0698,
                    -1.48546
                ]
            ],
            [
                [
                    -1.48547,
                    0.34249,
                    -0.0698
                ],
                [
                    -0.02161,
                    -2.86326,
                    0.07814
                ],
                [
                    -0.02833,
                    0.39055,
                    -1.42656
                ]
            ]
        ]
    },
    "band_gap": 3.1469000000000005,
    "is_direct": false,
    "formula": "Cs3SbO3"
}