{
    "mp_id": "mp-541040",
    "nelements": 4,
    "nsites": 24,
    "elements": [
        "Be",
        "Ge",
        "O",
        "Y"
    ],
    "structure": {
        "@module": "pymatgen.core.structure",
        "@class": "Structure",
        "charge": null,
        "lattice": {
            "matrix": [
                [
                    7.3938184,
                    0.0,
                    0.0
                ],
                [
                    0.0,
                    7.3938184,
                    0.0
                ],
                [
                    0.0,
                    0.0,
                    4.77726586
                ]
            ],
            "a": 7.3938184,
            "b": 7.3938184,
            "c": 4.77726586,
            "alpha": 90.0,
            "beta": 90.0,
            "gamma": 90.0,
            "volume": 261.1662000730615
        },
        "sites": [
            {
                "species": [
                    {
                        "element": "Y",
                        "occu": 1
                    }
                ],
                "abc": [
                    0.15794357,
                    0.34205643,
                    0.50484783
                ],
                "xyz": [
                    1.167806074027688,
                    2.5291031259723122,
                    2.4117923027540837
                ],
                "label": "Y",
                "properties": {}
            },
            {
                "species": [
                    {
                        "element": "Y",
                        "occu": 1
                    }
                ],
                "abc": [
                    0.34205643,
                    0.84205643,
                    0.49515217
                ],
                "xyz": [
                    2.5291031259723122,
                    6.226012325972311,
                    2.3654735572459162
                ],
                "label": "Y",
                "properties": {}
            },
            {
                "species": [
                    {
                        "element": "Y",
                        "occu": 1
                    }
                ],
                "abc": [
                    0.65794357,
                    0.15794357,
                    0.49515217
                ],
                "xyz": [
                    4.864715274027688,
                    1.167806074027688,
                    2.3654735572459162
                ],
                "label": "Y",
                "properties": {}
            },
            {
                "species": [
                    {
                        "element": "Y",
                        "occu": 1
                    }
                ],
                "abc": [
                    0.84205643,
                    0.65794357,
                    0.50484783
                ],
                "xyz": [
                    6.226012325972311,
                    4.864715274027688,
                    2.4117923027540837
                ],
                "label": "Y",
                "properties": {}
            },
            {
                "species": [
                    {
                        "element": "Be",
                        "occu": 1
                    }
                ],
                "abc": [
                    0.36464679,
                    0.13535321,
                    0.95043572
                ],
                "xyz": [
                    2.696132145402936,
                    1.000777054597064,
                    4.540484117280519
                ],
                "label": "Be",
                "properties": {}
            },
            {
                "species": [
                    {
                        "element": "Be",
                        "occu": 1
                    }
                ],
                "abc": [
                    0.13535321,
                    0.63535321,
                    0.04956428
                ],
                "xyz": [
                    1.000777054597064,
                    4.6976862545970635,
                    0.2367817427194808
                ],
                "label": "Be",
                "properties": {}
            },
            {
                "species": [
                    {
                        "element": "Be",
                        "occu": 1
                    }
                ],
                "abc": [
                    0.86464679,
                    0.36464679,
                    0.04956428
                ],
                "xyz": [
                    6.393041345402936,
                    2.696132145402936,
                    0.2367817427194808
                ],
                "label": "Be",
                "properties": {}
            },
            {
                "species": [
                    {
                        "element": "Be",
                        "occu": 1
                    }
                ],
                "abc": [
                    0.63535321,
                    0.86464679,
                    0.95043572
                ],
                "xyz": [
                    4.6976862545970635,
                    6.393041345402936,
                    4.540484117280519
                ],
                "label": "Be",
                "properties": {}
            },
            {
                "species": [
                    {
                        "element": "Ge",
                        "occu": 1
                    }
                ],
                "abc": [
                    0.0,
                    0.0,
                    0.0
                ],
                "xyz": [
                    0.0,
                    0.0,
                    0.0
                ],
                "label": "Ge",
                "properties": {}
            },
            {
                "species": [
                    {
                        "element": "Ge",
                        "occu": 1
                    }
                ],
                "abc": [
                    0.5,
                    0.5,
                    0.0
                ],
                "xyz": [
                    3.6969092,
                    3.6969092,
                    0.0
                ],
                "label": "Ge",
                "properties": {}
            },
            {
                "species": [
                    {
                        "element": "O",
                        "occu": 1
                    }
                ],
                "abc": [
                    0.5,
                    0.0,
                    0.81133001
                ],
                "xyz": [
                    3.6969092,
                    0.0,
                    3.875939157966459
                ],
                "label": "O",
                "properties": {}
            },
            {
                "species": [
                    {
                        "element": "O",
                        "occu": 1
                    }
                ],
                "abc": [
                    0.0,
                    0.5,
                    0.18866999
                ],
                "xyz": [
                    0.0,
                    3.6969092,
                    0.9013267020335415
                ],
                "label": "O",
                "properties": {}
            },
            {
                "species": [
                    {
                        "element": "O",
                        "occu": 1
                    }
                ],
                "abc": [
                    0.35769785,
                    0.14230215,
                    0.28171287
                ],
                "xyz": [
                    2.6447529449704397,
                    1.0521562550295598,
                    1.3458172761736182
                ],
                "label": "O",
                "properties": {}
            },
            {
                "species": [
                    {
                        "element": "O",
                        "occu": 1
                    }
                ],
                "abc": [
                    0.14230215,
                    0.64230215,
                    0.71828713
                ],
                "xyz": [
                    1.0521562550295598,
                    4.74906545502956,
                    3.431448583826382
                ],
                "label": "O",
                "properties": {}
            },
            {
                "species": [
                    {
                        "element": "O",
                        "occu": 1
                    }
                ],
                "abc": [
                    0.85769785,
                    0.35769785,
                    0.71828713
                ],
                "xyz": [
                    6.34166214497044,
                    2.6447529449704397,
                    3.431448583826382
                ],
                "label": "O",
                "properties": {}
            },
            {
                "species": [
                    {
                        "element": "O",
                        "occu": 1
                    }
                ],
                "abc": [
                    0.64230215,
                    0.85769785,
                    0.28171287
                ],
                "xyz": [
                    4.74906545502956,
                    6.34166214497044,
                    1.3458172761736182
                ],
                "label": "O",
                "properties": {}
            },
            {
                "species": [
                    {
                        "element": "O",
                        "occu": 1
                    }
                ],
                "abc": [
                    0.17305165,
                    0.0816581,
                    0.77776667
                ],
                "xyz": [
                    1.27951247392036,
                    0.60376516228904,
                    3.7155981596368863
                ],
                "label": "O",
                "properties": {}
            },
            {
                "species": [
                    {
                        "element": "O",
                        "occu": 1
                    }
                ],
                "abc": [
                    0.0816581,
                    0.82694835,
                    0.22223333
                ],
                "xyz": [
                    0.60376516228904,
                    6.1143059260796395,
                    1.0616677003631139
                ],
                "label": "O",
                "properties": {}
            },
            {
                "species": [
                    {
                        "element": "O",
                        "occu": 1
                    }
                ],
                "abc": [
                    0.9183419,
                    0.17305165,
                    0.22223333
                ],
                "xyz": [
                    6.79005323771096,
                    1.27951247392036,
                    1.0616677003631139
                ],
                "label": "O",
                "properties": {}
            },
            {
                "species": [
                    {
                        "element": "O",
                        "occu": 1
                    }
                ],
                "abc": [
                    0.82694835,
                    0.9183419,
                    0.77776667
                ],
                "xyz": [
                    6.1143059260796395,
                    6.79005323771096,
                    3.7155981596368863
                ],
                "label": "O",
                "properties": {}
            },
            {
                "species": [
                    {
                        "element": "O",
                        "occu": 1
                    }
                ],
                "abc": [
                    0.32694835,
                    0.5816581,
                    0.22223333
                ],
                "xyz": [
                    2.41739672607964,
                    4.3006743622890395,
                    1.0616677003631139
                ],
                "label": "O",
                "properties": {}
            },
            {
                "species": [
                    {
                        "element": "O",
                        "occu": 1
                    }
                ],
                "abc": [
                    0.67305165,
                    0.4183419,
                    0.22223333
                ],
                "xyz": [
                    4.97642167392036,
                    3.09314403771096,
                    1.0616677003631139
                ],
                "label": "O",
                "properties": {}
            },
            {
                "species": [
                    {
                        "element": "O",
                        "occu": 1
                    }
                ],
                "abc": [
                    0.5816581,
                    0.67305165,
                    0.77776667
                ],
                "xyz": [
                    4.3006743622890395,
                    4.97642167392036,
                    3.7155981596368863
                ],
                "label": "O",
                "properties": {}
            },
            {
                "species": [
                    {
                        "element": "O",
                        "occu": 1
                    }
                ],
                "abc": [
                    0.4183419,
                    0.32694835,
                    0.77776667
                ],
                "xyz": [
                    3.09314403771096,
                    2.41739672607964,
                    3.7155981596368863
                ],
                "label": "O",
                "properties": {}
            }
        ]
    },
    "spacegroup": {
        "source": "spglib",
        "symbol": "P-42_1m",
        "number": 113,
        "point_group": "-42m",
        "crystal_system": "tetragonal",
        "hall": "P -4 2ab"
    },
    "dielectric": {
        "epsilon_ionic": [
            [
                11.01551728,
                -0.0,
                0.0
            ],
            [
                -0.0,
                11.01551596,
                0.0
            ],
            [
                0.0,
                0.0,
                6.01478227
            ]
        ],
        "epsilon_ionic_avg": 9.34860517,
        "epsilon_ionic_eig": [
            11.01551728,
            11.01551596,
            6.01478227
        ],
        "epsilon_electronic": [
            [
                3.8869023,
                -0.0,
                0.0
            ],
            [
                -0.0,
                3.8869023,
                0.0
            ],
            [
                0.0,
                0.0,
                3.71070262
            ]
        ],
        "epsilon_electronic_avg": 3.8281690733333336,
        "epsilon_electronic_eig": [
            3.8869023,
            3.8869023,
            3.71070262
        ]
    },
    "phonon": {
        "lowest_freq": -0.037724533373184155,
        "frequency": [
            -0.037724533373184155,
            -0.023014752904004267,
            -0.023014752904004267,
            3.1703740604208424,
            3.1703740604208424,
            3.4365731199820067,
            3.9295363130409906,
            4.0891420652894075,
            4.27455144774669,
            4.27455144774669,
            5.295835428421819,
            5.721223056921235,
            5.721223056921235,
            5.770632677062294,
            6.191253356079232,
            6.191253356079232,
            6.477075252476976,
            7.3628286424878375,
            7.3628286424878375,
            7.403356894817868,
            7.41561779037667,
            7.781019283573424,
            7.781019283573424,
            7.936853677375477,
            8.497618457296879,
            8.576202298318858,
            8.576202298318858,
            8.747809083715772,
            9.004012508255062,
            9.29796929834891,
            9.523028665777055,
            9.523028665777055,
            9.840118195918274,
            10.204823400783162,
            10.204823400783162,
            10.214487035425742,
            11.107293118999523,
            11.329998232020877,
            11.329998232020877,
            12.812770337770694,
            13.463459350943666,
            13.475636111817025,
            13.997642682663768,
            13.997642682663768,
            14.107691565976786,
            14.349727737853529,
            15.449628003715521,
            15.449628003715521,
            17.221318721949576,
            17.221318721949576,
            18.386111009612346,
            18.53252289593722,
            18.54652946423431,
            19.023046790527342,
            19.749969676197747,
            19.749969676197747,
            22.189722170351647,
            22.897411610995857,
            22.897411610995857,
            23.000360445963555,
            23.000360445963555,
            23.308668624822214,
            23.33411390800987,
            24.647432252093832,
            24.647432252093832,
            24.742524324633717,
            25.24600976418147,
            25.407518483086303,
            26.52084593991599,
            26.854702521441713,
            28.985710339406452,
            28.985710339406452
        ]
    },
    "born_effective_charge": {
        "avg_abs_trace": 2.4117975,
        "tensors": [
            [
                [
                    3.88237,
                    -0.33181,
                    0.09394
                ],
                [
                    -0.33168,
                    3.88247,
                    -0.09387
                ],
                [
                    0.33817,
                    -0.33817,
                    3.44826
                ]
            ],
            [
                [
                    3.88247,
                    0.33167,
                    0.09387
                ],
                [
                    0.33168,
                    3.88247,
                    0.09387
                ],
                [
                    0.33805,
                    0.33805,
                    3.44812
                ]
            ],
            [
                [
                    3.88237,
                    0.33181,
                    -0.09394
                ],
                [
                    0.3318,
                    3.88237,
                    -0.09394
                ],
                [
                    -0.33805,
                    -0.33805,
                    3.44812
                ]
            ],
            [
                [
                    3.88247,
                    -0.33167,
                    -0.09387
                ],
                [
                    -0.3318,
                    3.88237,
                    0.09394
                ],
                [
                    -0.33817,
                    0.33817,
                    3.44826
                ]
            ],
            [
                [
                    1.64104,
                    0.04192,
                    0.03705
                ],
                [
                    0.0419,
                    1.64103,
                    -0.03702
                ],
                [
                    -0.14755,
                    0.14755,
                    2.00317
                ]
            ],
            [
                [
                    1.64103,
                    -0.0419,
                    0.03703
                ],
                [
                    -0.0419,
                    1.64103,
                    0.03702
                ],
                [
                    -0.14761,
                    -0.14761,
                    2.00323
                ]
            ],
            [
                [
                    1.64104,
                    -0.04192,
                    -0.03705
                ],
                [
                    -0.04192,
                    1.64104,
                    -0.03705
                ],
                [
                    0.14761,
                    0.14761,
                    2.00323
                ]
            ],
            [
                [
                    1.64103,
                    0.0419,
                    -0.03703
                ],
                [
                    0.04192,
                    1.64104,
                    0.03705
                ],
                [
                    0.14755,
                    -0.14755,
                    2.00317
                ]
            ],
            [
                [
                    3.4844,
                    -0.10882,
                    -3e-05
                ],
                [
                    0.10882,
                    3.4844,
                    3e-05
                ],
                [
                    -0.0,
                    -0.0,
                    3.44696
                ]
            ],
            [
                [
                    3.4844,
                    0.10882,
                    3e-05
                ],
                [
                    -0.10882,
                    3.4844,
                    -3e-05
                ],
                [
                    -0.0,
                    -0.0,
                    3.44696
                ]
            ],
            [
                [
                    -2.13911,
                    0.04664,
                    -4e-05
                ],
                [
                    0.04664,
                    -2.13911,
                    -4e-05
                ],
                [
                    -0.0,
                    -0.0,
                    -2.14225
                ]
            ],
            [
                [
                    -2.13911,
                    -0.04664,
                    4e-05
                ],
                [
                    -0.04664,
                    -2.13911,
                    4e-05
                ],
                [
                    -0.0,
                    -0.0,
                    -2.14215
                ]
            ],
            [
                [
                    -2.12418,
                    0.22166,
                    -0.00534
                ],
                [
                    0.22159,
                    -2.1242,
                    0.00535
                ],
                [
                    0.00099,
                    -0.00099,
                    -2.28229
                ]
            ],
            [
                [
                    -2.1242,
                    -0.2216,
                    -0.00535
                ],
                [
                    -0.22159,
                    -2.1242,
                    -0.00535
                ],
                [
                    0.00096,
                    0.00096,
                    -2.2824
                ]
            ],
            [
                [
                    -2.12418,
                    -0.22166,
                    0.00534
                ],
                [
                    -0.22166,
                    -2.12418,
                    0.00534
                ],
                [
                    -0.00096,
                    -0.00096,
                    -2.2824
                ]
            ],
            [
                [
                    -2.1242,
                    0.2216,
                    0.00535
                ],
                [
                    0.22166,
                    -2.12418,
                    -0.00534
                ],
                [
                    -0.00099,
                    0.00099,
                    -2.28229
                ]
            ],
            [
                [
                    -2.1044,
                    -0.12339,
                    0.19511
                ],
                [
                    -0.19033,
                    -1.9675,
                    0.26681
                ],
                [
                    0.25804,
                    0.23845,
                    -1.91068
                ]
            ],
            [
                [
                    -1.96749,
                    0.19033,
                    -0.26681
                ],
                [
                    0.12336,
                    -2.10447,
                    0.19515
                ],
                [
                    -0.23842,
                    0.25798,
                    -1.91074
                ]
            ],
            [
                [
                    -1.96747,
                    0.1903,
                    0.2668
                ],
                [
                    0.12339,
                    -2.10439,
                    -0.19511
                ],
                [
                    0.23842,
                    -0.25798,
                    -1.91074
                ]
            ],
            [
                [
                    -2.10446,
                    -0.12336,
                    -0.19515
                ],
                [
                    -0.19031,
                    -1.96746,
                    -0.26679
                ],
                [
                    -0.25804,
                    -0.23845,
                    -1.91068
                ]
            ],
            [
                [
                    -2.10446,
                    0.12336,
                    0.19515
                ],
                [
                    0.19033,
                    -1.9675,
                    -0.26681
                ],
                [
                    0.25798,
                    -0.23842,
                    -1.91074
                ]
            ],
            [
                [
                    -2.1044,
                    0.12339,
                    -0.19511
                ],
                [
                    0.19031,
                    -1.96746,
                    0.26679
                ],
                [
                    -0.25798,
                    0.23842,
                    -1.91074
                ]
            ],
            [
                [
                    -1.96749,
                    -0.19033,
                    0.26681
                ],
                [
                    -0.12339,
                    -2.10439,
                    0.19511
                ],
                [
                    0.23845,
                    0.25804,
                    -1.91068
                ]
            ],
            [
                [
                    -1.96747,
                    -0.1903,
                    -0.2668
                ],
                [
                    -0.12336,
                    -2.10447,
                    -0.19515
                ],
                [
                    -0.23845,
                    -0.25804,
                    -1.91068
                ]
            ]
        ]
    },
    "band_gap": 4.4429,
    "is_direct": true,
    "formula": "Y2Be2GeO7"
}