{
    "mp_id": "mp-540632",
    "nelements": 4,
    "nsites": 28,
    "elements": [
        "Ge",
        "O",
        "Rb",
        "Ta"
    ],
    "structure": {
        "@module": "pymatgen.core.structure",
        "@class": "Structure",
        "charge": null,
        "lattice": {
            "matrix": [
                [
                    7.10574764,
                    0.0,
                    0.0
                ],
                [
                    -3.55287382,
                    6.15375843,
                    0.0
                ],
                [
                    0.0,
                    0.0,
                    10.29177256
                ]
            ],
            "a": 7.10574764,
            "b": 7.105748039132647,
            "c": 10.29177256,
            "alpha": 90.0,
            "beta": 90.0,
            "gamma": 119.99999814189846,
            "volume": 450.0288990265659
        },
        "sites": [
            {
                "species": [
                    {
                        "element": "Rb",
                        "occu": 1
                    }
                ],
                "abc": [
                    0.666667,
                    0.333333,
                    0.0
                ],
                "xyz": [
                    3.5528773728738203,
                    2.05125075874719,
                    0.0
                ],
                "label": "Rb",
                "properties": {}
            },
            {
                "species": [
                    {
                        "element": "Rb",
                        "occu": 1
                    }
                ],
                "abc": [
                    0.666667,
                    0.333333,
                    0.5
                ],
                "xyz": [
                    3.5528773728738203,
                    2.05125075874719,
                    5.14588628
                ],
                "label": "Rb",
                "properties": {}
            },
            {
                "species": [
                    {
                        "element": "Ta",
                        "occu": 1
                    }
                ],
                "abc": [
                    0.333333,
                    0.666667,
                    0.0
                ],
                "xyz": [
                    -3.552873820034108e-06,
                    4.10250767125281,
                    0.0
                ],
                "label": "Ta",
                "properties": {}
            },
            {
                "species": [
                    {
                        "element": "Ta",
                        "occu": 1
                    }
                ],
                "abc": [
                    0.333333,
                    0.666667,
                    0.5
                ],
                "xyz": [
                    -3.552873820034108e-06,
                    4.10250767125281,
                    5.14588628
                ],
                "label": "Ta",
                "properties": {}
            },
            {
                "species": [
                    {
                        "element": "Ge",
                        "occu": 1
                    }
                ],
                "abc": [
                    0.07698607,
                    0.29083233,
                    0.25
                ],
                "xyz": [
                    -0.48624698605122574,
                    1.7897119024540418,
                    2.57294314
                ],
                "label": "Ge",
                "properties": {}
            },
            {
                "species": [
                    {
                        "element": "Ge",
                        "occu": 1
                    }
                ],
                "abc": [
                    0.21384626,
                    0.92301393,
                    0.25
                ],
                "xyz": [
                    -1.7598144700744858,
                    5.68000475274493,
                    2.57294314
                ],
                "label": "Ge",
                "properties": {}
            },
            {
                "species": [
                    {
                        "element": "Ge",
                        "occu": 1
                    }
                ],
                "abc": [
                    0.70916767,
                    0.78615374,
                    0.25
                ],
                "xyz": [
                    2.2460614561257124,
                    4.837800204801028,
                    2.57294314
                ],
                "label": "Ge",
                "properties": {}
            },
            {
                "species": [
                    {
                        "element": "Ge",
                        "occu": 1
                    }
                ],
                "abc": [
                    0.70916767,
                    0.92301393,
                    0.75
                ],
                "xyz": [
                    1.7598144700744869,
                    5.68000475274493,
                    7.7188294200000005
                ],
                "label": "Ge",
                "properties": {}
            },
            {
                "species": [
                    {
                        "element": "Ge",
                        "occu": 1
                    }
                ],
                "abc": [
                    0.21384626,
                    0.29083233,
                    0.75
                ],
                "xyz": [
                    0.48624698605122596,
                    1.7897119024540418,
                    7.7188294200000005
                ],
                "label": "Ge",
                "properties": {}
            },
            {
                "species": [
                    {
                        "element": "Ge",
                        "occu": 1
                    }
                ],
                "abc": [
                    0.07698607,
                    0.78615374,
                    0.75
                ],
                "xyz": [
                    -2.246061456125712,
                    4.837800204801028,
                    7.7188294200000005
                ],
                "label": "Ge",
                "properties": {}
            },
            {
                "species": [
                    {
                        "element": "O",
                        "occu": 1
                    }
                ],
                "abc": [
                    0.26933939,
                    0.19860094,
                    0.25
                ],
                "xyz": [
                    1.2082536544981488,
                    1.2221422087309242,
                    2.57294314
                ],
                "label": "O",
                "properties": {}
            },
            {
                "species": [
                    {
                        "element": "O",
                        "occu": 1
                    }
                ],
                "abc": [
                    0.92926155,
                    0.73066061,
                    0.25
                ],
                "xyz": [
                    4.007153113281011,
                    4.496308888256443,
                    2.57294314
                ],
                "label": "O",
                "properties": {}
            },
            {
                "species": [
                    {
                        "element": "O",
                        "occu": 1
                    }
                ],
                "abc": [
                    0.80139906,
                    0.07073845,
                    0.25
                ],
                "xyz": [
                    5.443214692220839,
                    0.43530733301263347,
                    2.57294314
                ],
                "label": "O",
                "properties": {}
            },
            {
                "species": [
                    {
                        "element": "O",
                        "occu": 1
                    }
                ],
                "abc": [
                    0.80139906,
                    0.73066061,
                    0.75
                ],
                "xyz": [
                    3.098594526718988,
                    4.496308888256443,
                    7.7188294200000005
                ],
                "label": "O",
                "properties": {}
            },
            {
                "species": [
                    {
                        "element": "O",
                        "occu": 1
                    }
                ],
                "abc": [
                    0.92926155,
                    0.19860094,
                    0.75
                ],
                "xyz": [
                    5.897493985501851,
                    1.2221422087309242,
                    7.7188294200000005
                ],
                "label": "O",
                "properties": {}
            },
            {
                "species": [
                    {
                        "element": "O",
                        "occu": 1
                    }
                ],
                "abc": [
                    0.26933939,
                    0.07073845,
                    0.75
                ],
                "xyz": [
                    1.6625329477791606,
                    0.43530733301263347,
                    7.7188294200000005
                ],
                "label": "O",
                "properties": {}
            },
            {
                "species": [
                    {
                        "element": "O",
                        "occu": 1
                    }
                ],
                "abc": [
                    0.09861111,
                    0.4410785,
                    0.10910923
                ],
                "xyz": [
                    -0.8663905930545895,
                    2.7142905376667548,
                    1.122927379356729
                ],
                "label": "O",
                "properties": {}
            },
            {
                "species": [
                    {
                        "element": "O",
                        "occu": 1
                    }
                ],
                "abc": [
                    0.34246739,
                    0.90138889,
                    0.39089077
                ],
                "xyz": [
                    -0.7690341406504002,
                    5.546929480545843,
                    4.022958900643271
                ],
                "label": "O",
                "properties": {}
            },
            {
                "species": [
                    {
                        "element": "O",
                        "occu": 1
                    }
                ],
                "abc": [
                    0.5589215,
                    0.65753261,
                    0.39089077
                ],
                "xyz": [
                    1.6354247337049892,
                    4.046296841787402,
                    4.022958900643271
                ],
                "label": "O",
                "properties": {}
            },
            {
                "species": [
                    {
                        "element": "O",
                        "occu": 1
                    }
                ],
                "abc": [
                    0.5589215,
                    0.65753261,
                    0.10910923
                ],
                "xyz": [
                    1.6354247337049892,
                    4.046296841787402,
                    1.122927379356729
                ],
                "label": "O",
                "properties": {}
            },
            {
                "species": [
                    {
                        "element": "O",
                        "occu": 1
                    }
                ],
                "abc": [
                    0.34246739,
                    0.90138889,
                    0.10910923
                ],
                "xyz": [
                    -0.7690341406504002,
                    5.546929480545843,
                    1.122927379356729
                ],
                "label": "O",
                "properties": {}
            },
            {
                "species": [
                    {
                        "element": "O",
                        "occu": 1
                    }
                ],
                "abc": [
                    0.5589215,
                    0.90138889,
                    0.89089077
                ],
                "xyz": [
                    0.7690341406503998,
                    5.546929480545843,
                    9.168845180643272
                ],
                "label": "O",
                "properties": {}
            },
            {
                "species": [
                    {
                        "element": "O",
                        "occu": 1
                    }
                ],
                "abc": [
                    0.34246739,
                    0.4410785,
                    0.89089077
                ],
                "xyz": [
                    0.8663905930545894,
                    2.7142905376667548,
                    9.168845180643272
                ],
                "label": "O",
                "properties": {}
            },
            {
                "species": [
                    {
                        "element": "O",
                        "occu": 1
                    }
                ],
                "abc": [
                    0.09861111,
                    0.65753261,
                    0.89089077
                ],
                "xyz": [
                    -1.6354247337049896,
                    4.046296841787402,
                    9.168845180643272
                ],
                "label": "O",
                "properties": {}
            },
            {
                "species": [
                    {
                        "element": "O",
                        "occu": 1
                    }
                ],
                "abc": [
                    0.34246739,
                    0.4410785,
                    0.60910923
                ],
                "xyz": [
                    0.8663905930545894,
                    2.7142905376667548,
                    6.268813659356728
                ],
                "label": "O",
                "properties": {}
            },
            {
                "species": [
                    {
                        "element": "O",
                        "occu": 1
                    }
                ],
                "abc": [
                    0.09861111,
                    0.65753261,
                    0.60910923
                ],
                "xyz": [
                    -1.6354247337049896,
                    4.046296841787402,
                    6.268813659356728
                ],
                "label": "O",
                "properties": {}
            },
            {
                "species": [
                    {
                        "element": "O",
                        "occu": 1
                    }
                ],
                "abc": [
                    0.09861111,
                    0.4410785,
                    0.39089077
                ],
                "xyz": [
                    -0.8663905930545895,
                    2.7142905376667548,
                    4.022958900643271
                ],
                "label": "O",
                "properties": {}
            },
            {
                "species": [
                    {
                        "element": "O",
                        "occu": 1
                    }
                ],
                "abc": [
                    0.5589215,
                    0.90138889,
                    0.60910923
                ],
                "xyz": [
                    0.7690341406503998,
                    5.546929480545843,
                    6.268813659356728
                ],
                "label": "O",
                "properties": {}
            }
        ]
    },
    "spacegroup": {
        "source": "spglib",
        "symbol": "P-6c2",
        "number": 188,
        "point_group": "-6m2",
        "crystal_system": "hexagonal",
        "hall": "P -6c 2"
    },
    "dielectric": {
        "epsilon_ionic": [
            [
                4.99062256,
                -0.000103,
                -0.0
            ],
            [
                -0.000103,
                4.98997523,
                0.0
            ],
            [
                -0.0,
                0.0,
                7.68648728
            ]
        ],
        "epsilon_ionic_avg": 5.889028356666667,
        "epsilon_ionic_eig": [
            4.9906385536996165,
            4.9899592363003835,
            7.68648728
        ],
        "epsilon_electronic": [
            [
                3.12727706,
                0.0,
                -0.0
            ],
            [
                -0.0,
                3.12727677,
                0.0
            ],
            [
                0.0,
                0.0,
                3.42093625
            ]
        ],
        "epsilon_electronic_avg": 3.22516336,
        "epsilon_electronic_eig": [
            3.12727706,
            3.12727677,
            3.42093625
        ]
    },
    "phonon": {
        "lowest_freq": -0.12796906727377289,
        "frequency": [
            -0.12796906727377289,
            -0.025032878024604615,
            -0.025032876853024726,
            1.4100586287844736,
            1.5176499472852227,
            1.8969115917638186,
            1.8969116755105164,
            1.967295351049378,
            1.9672953634725319,
            2.306625798799283,
            2.306625904754972,
            2.9083046805714496,
            2.975377571946843,
            2.9753776623018102,
            3.262627673008271,
            3.262627804098994,
            3.5405322617118395,
            3.549258448534073,
            3.5492584554200226,
            3.7028736825485815,
            4.25800688500644,
            4.2580069280547725,
            4.381115100025526,
            4.381115231120073,
            4.4209204928700165,
            4.584796828388853,
            4.584796847046179,
            5.553121573449302,
            5.63179162550188,
            5.631791668898395,
            6.170541554440956,
            6.170541574244739,
            6.321188728255257,
            6.404154563152589,
            7.226418591119423,
            7.257541676578983,
            7.4077254630581875,
            7.407725496050788,
            7.60306282912211,
            7.603062861267068,
            8.090231972443043,
            8.838681731916571,
            9.113294411083045,
            9.113294585399903,
            9.337816014633697,
            9.337816027720276,
            11.020494287488164,
            11.126953920514032,
            11.453385651276907,
            11.453385693954267,
            12.328773909624495,
            12.328774008742272,
            12.33760086500284,
            12.337600954145014,
            12.772480686011827,
            13.118136212148718,
            13.118136417086477,
            13.387875135074777,
            13.402061752265038,
            14.078722077988644,
            14.82824649682257,
            14.891717747825462,
            16.115500857111456,
            16.115501084594424,
            16.229292607465744,
            16.229292833353714,
            21.82966776180037,
            22.933970539014222,
            22.933970645581088,
            23.065308446519598,
            23.065308711419725,
            23.47325755190869,
            23.473257708086507,
            23.491291088011074,
            23.491291348107602,
            24.23396540224943,
            24.277883958102915,
            26.579387660522936,
            26.87609765351546,
            26.876097698983397,
            26.96690897471562,
            26.96690902003044,
            28.286951719049377,
            28.66495410434539
        ]
    },
    "born_effective_charge": {
        "avg_abs_trace": 2.660531309523809,
        "tensors": [
            [
                [
                    1.41034,
                    0.0,
                    0.00013
                ],
                [
                    -0.0,
                    1.41009,
                    0.0
                ],
                [
                    -0.0,
                    0.0,
                    1.06356
                ]
            ],
            [
                [
                    1.41034,
                    0.0,
                    -0.00013
                ],
                [
                    -0.0,
                    1.41009,
                    0.0
                ],
                [
                    -0.0,
                    0.0,
                    1.06356
                ]
            ],
            [
                [
                    5.68371,
                    -0.00066,
                    0.00011
                ],
                [
                    -0.0,
                    5.68315,
                    0.0
                ],
                [
                    -0.0,
                    0.0,
                    7.88906
                ]
            ],
            [
                [
                    5.68371,
                    -0.00066,
                    -0.00011
                ],
                [
                    -0.0,
                    5.68315,
                    0.0
                ],
                [
                    -0.0,
                    0.0,
                    7.88906
                ]
            ],
            [
                [
                    2.83783,
                    0.24914,
                    0.0
                ],
                [
                    -0.42563,
                    4.36873,
                    0.0
                ],
                [
                    4e-05,
                    -6e-05,
                    3.70395
                ]
            ],
            [
                [
                    4.06135,
                    -0.28127,
                    0.0
                ],
                [
                    -0.95601,
                    3.14433,
                    0.0
                ],
                [
                    -8e-05,
                    -1e-05,
                    3.70395
                ]
            ],
            [
                [
                    3.90939,
                    1.044,
                    0.0
                ],
                [
                    0.3695,
                    3.29705,
                    0.0
                ],
                [
                    3e-05,
                    7e-05,
                    3.70395
                ]
            ],
            [
                [
                    4.06214,
                    0.28116,
                    0.0
                ],
                [
                    0.95601,
                    3.14433,
                    0.0
                ],
                [
                    8e-05,
                    -1e-05,
                    3.70395
                ]
            ],
            [
                [
                    2.83783,
                    -0.24954,
                    0.0
                ],
                [
                    0.42563,
                    4.36873,
                    0.0
                ],
                [
                    -4e-05,
                    -6e-05,
                    3.70395
                ]
            ],
            [
                [
                    3.91006,
                    -1.04481,
                    0.0
                ],
                [
                    -0.3695,
                    3.29705,
                    0.0
                ],
                [
                    -3e-05,
                    7e-05,
                    3.70395
                ]
            ],
            [
                [
                    -1.99261,
                    0.81826,
                    0.0
                ],
                [
                    1.11096,
                    -2.36713,
                    0.0
                ],
                [
                    -2e-05,
                    3e-05,
                    -1.04762
                ]
            ],
            [
                [
                    -3.10858,
                    -0.46675,
                    0.0
                ],
                [
                    -0.17385,
                    -1.25087,
                    0.0
                ],
                [
                    4e-05,
                    1e-05,
                    -1.04762
                ]
            ],
            [
                [
                    -1.4382,
                    -0.79053,
                    0.0
                ],
                [
                    -0.49803,
                    -2.92191,
                    0.0
                ],
                [
                    -1e-05,
                    -4e-05,
                    -1.04762
                ]
            ],
            [
                [
                    -3.10898,
                    0.46612,
                    0.0
                ],
                [
                    0.17385,
                    -1.25087,
                    0.0
                ],
                [
                    -4e-05,
                    1e-05,
                    -1.04762
                ]
            ],
            [
                [
                    -1.99298,
                    -0.81841,
                    0.0
                ],
                [
                    -1.11096,
                    -2.36713,
                    0.0
                ],
                [
                    2e-05,
                    3e-05,
                    -1.04762
                ]
            ],
            [
                [
                    -1.4383,
                    0.7905,
                    0.0
                ],
                [
                    0.49803,
                    -2.92191,
                    0.0
                ],
                [
                    1e-05,
                    -4e-05,
                    -1.04762
                ]
            ],
            [
                [
                    -1.2958,
                    -0.40696,
                    0.2218
                ],
                [
                    -0.45393,
                    -2.49194,
                    1.28618
                ],
                [
                    0.41988,
                    1.54053,
                    -2.82029
                ]
            ],
            [
                [
                    -1.82004,
                    0.75687,
                    -1.00224
                ],
                [
                    0.70969,
                    -1.96765,
                    0.83561
                ],
                [
                    -1.12415,
                    1.13389,
                    -2.82024
                ]
            ],
            [
                [
                    -2.56569,
                    -0.27867,
                    1.2242
                ],
                [
                    -0.32611,
                    -1.22213,
                    0.45054
                ],
                [
                    1.54405,
                    0.4066,
                    -2.82024
                ]
            ],
            [
                [
                    -2.56569,
                    -0.27867,
                    -1.2242
                ],
                [
                    -0.32611,
                    -1.22213,
                    -0.45054
                ],
                [
                    -1.54407,
                    -0.40664,
                    -2.82029
                ]
            ],
            [
                [
                    -1.82004,
                    0.75687,
                    1.00224
                ],
                [
                    0.70969,
                    -1.96765,
                    -0.83561
                ],
                [
                    1.1242,
                    -1.13389,
                    -2.82029
                ]
            ],
            [
                [
                    -1.82057,
                    -0.75658,
                    1.00295
                ],
                [
                    -0.70969,
                    -1.96765,
                    0.83561
                ],
                [
                    1.12415,
                    1.13389,
                    -2.82024
                ]
            ],
            [
                [
                    -1.29564,
                    0.40732,
                    0.22295
                ],
                [
                    0.45393,
                    -2.49194,
                    -1.28618
                ],
                [
                    0.4199,
                    -1.54049,
                    -2.82024
                ]
            ],
            [
                [
                    -2.56578,
                    0.27974,
                    -1.22563
                ],
                [
                    0.32611,
                    -1.22213,
                    0.45054
                ],
                [
                    -1.54405,
                    0.4066,
                    -2.82024
                ]
            ],
            [
                [
                    -1.29564,
                    0.40732,
                    -0.22295
                ],
                [
                    0.45393,
                    -2.49194,
                    1.28618
                ],
                [
                    -0.41988,
                    1.54053,
                    -2.82029
                ]
            ],
            [
                [
                    -2.56578,
                    0.27974,
                    1.22563
                ],
                [
                    0.32611,
                    -1.22213,
                    -0.45054
                ],
                [
                    1.54407,
                    -0.40664,
                    -2.82029
                ]
            ],
            [
                [
                    -1.2958,
                    -0.40696,
                    -0.2218
                ],
                [
                    -0.45393,
                    -2.49194,
                    -1.28618
                ],
                [
                    -0.4199,
                    -1.54049,
                    -2.82024
                ]
            ],
            [
                [
                    -1.82057,
                    -0.75658,
                    -1.00295
                ],
                [
                    -0.70969,
                    -1.96765,
                    -0.83561
                ],
                [
                    -1.1242,
                    -1.13389,
                    -2.82029
                ]
            ]
        ]
    },
    "band_gap": 3.3935,
    "is_direct": false,
    "formula": "RbTa(GeO3)3"
}