{
    "mp_id": "mp-560478",
    "nelements": 4,
    "nsites": 32,
    "elements": [
        "Ba",
        "O",
        "Si",
        "Y"
    ],
    "structure": {
        "@module": "pymatgen.core.structure",
        "@class": "Structure",
        "charge": null,
        "lattice": {
            "matrix": [
                [
                    5.41086999,
                    0.0,
                    0.00013721
                ],
                [
                    0.0,
                    12.1621408,
                    0.0
                ],
                [
                    -1.94068054,
                    0.0,
                    6.5725423
                ]
            ],
            "a": 5.4108699917397,
            "b": 12.1621408,
            "c": 6.853068892373984,
            "alpha": 90.0,
            "beta": 106.44888454842253,
            "gamma": 90.0,
            "volume": 432.5275423538401
        },
        "sites": [
            {
                "species": [
                    {
                        "element": "Ba",
                        "occu": 1
                    }
                ],
                "abc": [
                    0.24075832,
                    0.25,
                    0.98562683
                ],
                "xyz": [
                    -0.6100748401520713,
                    3.0405352,
                    6.478107066638996
                ],
                "label": "Ba",
                "properties": {}
            },
            {
                "species": [
                    {
                        "element": "Ba",
                        "occu": 1
                    }
                ],
                "abc": [
                    0.75924168,
                    0.75,
                    0.01437317
                ],
                "xyz": [
                    4.080264290152072,
                    9.121605599999999,
                    0.0945724433610038
                ],
                "label": "Ba",
                "properties": {}
            },
            {
                "species": [
                    {
                        "element": "Y",
                        "occu": 1
                    }
                ],
                "abc": [
                    0.84306701,
                    0.40071419,
                    0.31704219
                ],
                "xyz": [
                    3.946448375476047,
                    4.8735423993379525,
                    2.083888881884079
                ],
                "label": "Y",
                "properties": {}
            },
            {
                "species": [
                    {
                        "element": "Y",
                        "occu": 1
                    }
                ],
                "abc": [
                    0.84306701,
                    0.09928581,
                    0.31704219
                ],
                "xyz": [
                    3.946448375476047,
                    1.207528000662048,
                    2.083888881884079
                ],
                "label": "Y",
                "properties": {}
            },
            {
                "species": [
                    {
                        "element": "Y",
                        "occu": 1
                    }
                ],
                "abc": [
                    0.15693299,
                    0.90071419,
                    0.68295781
                ],
                "xyz": [
                    -0.4762589254760473,
                    10.954612799337951,
                    4.488790628115922
                ],
                "label": "Y",
                "properties": {}
            },
            {
                "species": [
                    {
                        "element": "Y",
                        "occu": 1
                    }
                ],
                "abc": [
                    0.15693299,
                    0.59928581,
                    0.68295781
                ],
                "xyz": [
                    -0.4762589254760473,
                    7.288598400662048,
                    4.488790628115922
                ],
                "label": "Y",
                "properties": {}
            },
            {
                "species": [
                    {
                        "element": "Si",
                        "occu": 1
                    }
                ],
                "abc": [
                    0.30444251,
                    0.94005645,
                    0.21174133
                ],
                "xyz": [
                    1.2363765623945568,
                    11.43309890484816,
                    1.3917206206400563
                ],
                "label": "Si",
                "properties": {}
            },
            {
                "species": [
                    {
                        "element": "Si",
                        "occu": 1
                    }
                ],
                "abc": [
                    0.58217369,
                    0.75,
                    0.48590413
                ],
                "xyz": [
                    2.207081458791933,
                    9.121605599999999,
                    3.193705328221704
                ],
                "label": "Si",
                "properties": {}
            },
            {
                "species": [
                    {
                        "element": "Si",
                        "occu": 1
                    }
                ],
                "abc": [
                    0.41782631,
                    0.25,
                    0.51409587
                ],
                "xyz": [
                    1.263107991208067,
                    3.0405352,
                    3.3789741817782963
                ],
                "label": "Si",
                "properties": {}
            },
            {
                "species": [
                    {
                        "element": "Si",
                        "occu": 1
                    }
                ],
                "abc": [
                    0.30444251,
                    0.55994355,
                    0.21174133
                ],
                "xyz": [
                    1.2363765623945568,
                    6.810112295151839,
                    1.3917206206400563
                ],
                "label": "Si",
                "properties": {}
            },
            {
                "species": [
                    {
                        "element": "Si",
                        "occu": 1
                    }
                ],
                "abc": [
                    0.69555749,
                    0.44005645,
                    0.78825867
                ],
                "xyz": [
                    2.2338128876054437,
                    5.3520285048481595,
                    5.180958889359944
                ],
                "label": "Si",
                "properties": {}
            },
            {
                "species": [
                    {
                        "element": "Si",
                        "occu": 1
                    }
                ],
                "abc": [
                    0.69555749,
                    0.05994355,
                    0.78825867
                ],
                "xyz": [
                    2.2338128876054437,
                    0.7290418951518399,
                    5.180958889359944
                ],
                "label": "Si",
                "properties": {}
            },
            {
                "species": [
                    {
                        "element": "O",
                        "occu": 1
                    }
                ],
                "abc": [
                    0.10540356,
                    0.54889703,
                    0.3537593
                ],
                "xyz": [
                    -0.11620882971085755,
                    6.675762963561824,
                    2.3251124256908575
                ],
                "label": "O",
                "properties": {}
            },
            {
                "species": [
                    {
                        "element": "O",
                        "occu": 1
                    }
                ],
                "abc": [
                    0.55044272,
                    0.85791815,
                    0.33492806
                ],
                "xyz": [
                    2.3283856265200207,
                    10.43412133517552,
                    2.2014043680525495
                ],
                "label": "O",
                "properties": {}
            },
            {
                "species": [
                    {
                        "element": "O",
                        "occu": 1
                    }
                ],
                "abc": [
                    0.44955728,
                    0.14208185,
                    0.66507194
                ],
                "xyz": [
                    1.1418038234799797,
                    1.72801946482448,
                    4.371275141947451
                ],
                "label": "O",
                "properties": {}
            },
            {
                "species": [
                    {
                        "element": "O",
                        "occu": 1
                    }
                ],
                "abc": [
                    0.55044272,
                    0.64208185,
                    0.33492806
                ],
                "xyz": [
                    2.3283856265200207,
                    7.809089864824479,
                    2.2014043680525495
                ],
                "label": "O",
                "properties": {}
            },
            {
                "species": [
                    {
                        "element": "O",
                        "occu": 1
                    }
                ],
                "abc": [
                    0.15905384,
                    0.62182363,
                    0.000629
                ],
                "xyz": [
                    0.8593989615906016,
                    7.5627065408271035,
                    0.0041559528840864
                ],
                "label": "O",
                "properties": {}
            },
            {
                "species": [
                    {
                        "element": "O",
                        "occu": 1
                    }
                ],
                "abc": [
                    0.84094616,
                    0.12182363,
                    0.999371
                ],
                "xyz": [
                    2.610790488409399,
                    1.481636140827104,
                    6.568523557115914
                ],
                "label": "O",
                "properties": {}
            },
            {
                "species": [
                    {
                        "element": "O",
                        "occu": 1
                    }
                ],
                "abc": [
                    0.56493415,
                    0.94293082,
                    0.81144673
                ],
                "xyz": [
                    1.4820263604035246,
                    11.468057397499456,
                    5.333345471736401
                ],
                "label": "O",
                "properties": {}
            },
            {
                "species": [
                    {
                        "element": "O",
                        "occu": 1
                    }
                ],
                "abc": [
                    0.89459644,
                    0.04889703,
                    0.6462407
                ],
                "xyz": [
                    3.586398279710858,
                    0.594692563561824,
                    4.247567084309143
                ],
                "label": "O",
                "properties": {}
            },
            {
                "species": [
                    {
                        "element": "O",
                        "occu": 1
                    }
                ],
                "abc": [
                    0.89459644,
                    0.45110297,
                    0.6462407
                ],
                "xyz": [
                    3.586398279710858,
                    5.486377836438176,
                    4.247567084309143
                ],
                "label": "O",
                "properties": {}
            },
            {
                "species": [
                    {
                        "element": "O",
                        "occu": 1
                    }
                ],
                "abc": [
                    0.36841168,
                    0.75,
                    0.61120808
                ],
                "xyz": [
                    0.8072680765307201,
                    9.121605599999999,
                    4.017241509668397
                ],
                "label": "O",
                "properties": {}
            },
            {
                "species": [
                    {
                        "element": "O",
                        "occu": 1
                    }
                ],
                "abc": [
                    0.15905384,
                    0.87817637,
                    0.000629
                ],
                "xyz": [
                    0.8593989615906016,
                    10.680504659172897,
                    0.0041559528840864
                ],
                "label": "O",
                "properties": {}
            },
            {
                "species": [
                    {
                        "element": "O",
                        "occu": 1
                    }
                ],
                "abc": [
                    0.43506585,
                    0.44293082,
                    0.18855327
                ],
                "xyz": [
                    1.9881630895964755,
                    5.386986997499456,
                    1.2393340382635996
                ],
                "label": "O",
                "properties": {}
            },
            {
                "species": [
                    {
                        "element": "O",
                        "occu": 1
                    }
                ],
                "abc": [
                    0.87679708,
                    0.75,
                    0.63463949
                ],
                "xyz": [
                    3.512602499333105,
                    9.121605599999999,
                    4.171315198602773
                ],
                "label": "O",
                "properties": {}
            },
            {
                "species": [
                    {
                        "element": "O",
                        "occu": 1
                    }
                ],
                "abc": [
                    0.44955728,
                    0.35791815,
                    0.66507194
                ],
                "xyz": [
                    1.1418038234799797,
                    4.35305093517552,
                    4.371275141947451
                ],
                "label": "O",
                "properties": {}
            },
            {
                "species": [
                    {
                        "element": "O",
                        "occu": 1
                    }
                ],
                "abc": [
                    0.12320292,
                    0.25,
                    0.36536051
                ],
                "xyz": [
                    -0.042413049333104635,
                    3.0405352,
                    2.4013643113972267
                ],
                "label": "O",
                "properties": {}
            },
            {
                "species": [
                    {
                        "element": "O",
                        "occu": 1
                    }
                ],
                "abc": [
                    0.43506585,
                    0.05706918,
                    0.18855327
                ],
                "xyz": [
                    1.9881630895964755,
                    0.6940834025005439,
                    1.2393340382635996
                ],
                "label": "O",
                "properties": {}
            },
            {
                "species": [
                    {
                        "element": "O",
                        "occu": 1
                    }
                ],
                "abc": [
                    0.63158832,
                    0.25,
                    0.38879192
                ],
                "xyz": [
                    2.66292137346928,
                    3.0405352,
                    2.5554380003316033
                ],
                "label": "O",
                "properties": {}
            },
            {
                "species": [
                    {
                        "element": "O",
                        "occu": 1
                    }
                ],
                "abc": [
                    0.56493415,
                    0.55706918,
                    0.81144673
                ],
                "xyz": [
                    1.4820263604035246,
                    6.775153802500545,
                    5.333345471736401
                ],
                "label": "O",
                "properties": {}
            },
            {
                "species": [
                    {
                        "element": "O",
                        "occu": 1
                    }
                ],
                "abc": [
                    0.84094616,
                    0.37817637,
                    0.999371
                ],
                "xyz": [
                    2.610790488409399,
                    4.599434259172896,
                    6.568523557115914
                ],
                "label": "O",
                "properties": {}
            },
            {
                "species": [
                    {
                        "element": "O",
                        "occu": 1
                    }
                ],
                "abc": [
                    0.10540356,
                    0.95110297,
                    0.3537593
                ],
                "xyz": [
                    -0.11620882971085755,
                    11.567448236438176,
                    2.3251124256908575
                ],
                "label": "O",
                "properties": {}
            }
        ]
    },
    "spacegroup": {
        "source": "spglib",
        "symbol": "P2_1/m",
        "number": 11,
        "point_group": "2/m",
        "crystal_system": "monoclinic",
        "hall": "-P 2yb"
    },
    "dielectric": {
        "epsilon_ionic": [
            [
                6.82259675,
                -0.0,
                -0.00357799
            ],
            [
                -0.0,
                7.80683305,
                0.0
            ],
            [
                -0.00357799,
                0.0,
                5.99337021
            ]
        ],
        "epsilon_ionic_avg": 6.87426667,
        "epsilon_ionic_eig": [
            6.822612188210771,
            5.993354771789229,
            7.80683305
        ],
        "epsilon_electronic": [
            [
                3.30554342,
                0.0,
                -0.02670122
            ],
            [
                0.0,
                3.21745272,
                0.0
            ],
            [
                -0.02669894,
                0.0,
                3.28062482
            ]
        ],
        "epsilon_electronic_avg": 3.2678736533333335,
        "epsilon_electronic_eig": [
            3.322548139196247,
            3.263620100803753,
            3.21745272
        ]
    },
    "phonon": {
        "lowest_freq": -0.08942444458773664,
        "frequency": [
            -0.08942444458773664,
            -0.04190840331542922,
            -0.035359875406183586,
            1.9971523847495276,
            2.2286487154140717,
            2.3936294906164397,
            2.514214886295462,
            2.9619557607959117,
            2.9833096277155478,
            3.0975037029617267,
            3.1005376079275955,
            3.135842499904876,
            3.3597768798893655,
            3.5145900966973094,
            3.78707812922513,
            3.841298123081485,
            4.028571114943226,
            4.478982479705853,
            4.5049815617995606,
            4.620155201412954,
            4.870038330702937,
            4.97619279334422,
            5.1208774631802605,
            5.407132404175556,
            5.472790269763652,
            5.694539127624188,
            6.08031135793792,
            6.134888824417692,
            6.371931917101168,
            6.53287780854971,
            6.755357372751525,
            7.005752725901866,
            7.057412446750406,
            7.186785022671504,
            7.195138344875489,
            8.042803772571087,
            8.116762372224231,
            8.244467718895715,
            8.32581854772176,
            8.647140610276614,
            8.94938992894348,
            9.232045058455395,
            9.534153401598656,
            9.923891296561566,
            10.057099326089443,
            10.223553344005309,
            10.317356858936332,
            10.471898244973781,
            10.534447755228483,
            11.079748448531847,
            11.216821715968056,
            11.690475654238334,
            11.896037319424984,
            12.047237979283532,
            12.143191394804916,
            12.829592629059464,
            13.114521292014222,
            13.334706495905104,
            13.337389545560093,
            13.510568356595012,
            13.715821313624106,
            13.862150895300918,
            14.291892643697166,
            14.311091244816277,
            15.130172578675118,
            15.188587895958902,
            15.496816808224303,
            15.506067296728789,
            15.620446812609286,
            15.94678018468398,
            16.261060893858538,
            16.32797474037725,
            18.906377624362584,
            19.043427938157308,
            20.292599048393136,
            20.46528468190968,
            25.0112068158965,
            25.133591362708533,
            25.534785845639746,
            25.950802616343495,
            26.418811086270804,
            26.610268476128063,
            26.863271089251974,
            26.95365620828336,
            27.536574338844048,
            27.564321508443275,
            28.178976594214493,
            28.234538699592783,
            28.60043666564363,
            28.665905046614945,
            28.67812798692501,
            29.121357070892866,
            29.306428565643618,
            29.327402420645274,
            29.47905910503637,
            31.133741892529144
        ]
    },
    "born_effective_charge": {
        "avg_abs_trace": 2.49477125,
        "tensors": [
            [
                [
                    2.76775,
                    0.0,
                    -0.09951
                ],
                [
                    0.0,
                    2.85142,
                    2e-05
                ],
                [
                    -0.09187,
                    -0.0,
                    2.46998
                ]
            ],
            [
                [
                    2.76767,
                    0.0,
                    -0.09955
                ],
                [
                    -0.0,
                    2.85142,
                    -2e-05
                ],
                [
                    -0.09184,
                    -0.0,
                    2.46987
                ]
            ],
            [
                [
                    3.92765,
                    0.07709,
                    -0.05134
                ],
                [
                    0.01684,
                    3.4853,
                    0.02113
                ],
                [
                    -0.11174,
                    0.06174,
                    3.81703
                ]
            ],
            [
                [
                    3.92765,
                    -0.07709,
                    -0.05134
                ],
                [
                    -0.0169,
                    3.48531,
                    -0.02121
                ],
                [
                    -0.11174,
                    -0.06174,
                    3.81703
                ]
            ],
            [
                [
                    3.92763,
                    -0.07708,
                    -0.05161
                ],
                [
                    -0.01684,
                    3.4853,
                    -0.02113
                ],
                [
                    -0.11143,
                    -0.06163,
                    3.81722
                ]
            ],
            [
                [
                    3.92763,
                    0.07708,
                    -0.05161
                ],
                [
                    0.0169,
                    3.48531,
                    0.02121
                ],
                [
                    -0.11143,
                    0.06163,
                    3.81722
                ]
            ],
            [
                [
                    3.12349,
                    0.17592,
                    -0.16029
                ],
                [
                    -0.15557,
                    3.23137,
                    0.01991
                ],
                [
                    0.05728,
                    0.26064,
                    3.4059
                ]
            ],
            [
                [
                    3.18635,
                    0.0,
                    0.19656
                ],
                [
                    1e-05,
                    3.22992,
                    -1e-05
                ],
                [
                    -0.0977,
                    -0.0,
                    3.38757
                ]
            ],
            [
                [
                    3.18632,
                    0.0,
                    0.19656
                ],
                [
                    -1e-05,
                    3.22992,
                    1e-05
                ],
                [
                    -0.09755,
                    -0.0,
                    3.38758
                ]
            ],
            [
                [
                    3.12349,
                    -0.17592,
                    -0.16029
                ],
                [
                    0.15558,
                    3.23137,
                    -0.01993
                ],
                [
                    0.05728,
                    -0.26064,
                    3.4059
                ]
            ],
            [
                [
                    3.12352,
                    -0.17591,
                    -0.16026
                ],
                [
                    0.15557,
                    3.23137,
                    -0.01991
                ],
                [
                    0.05721,
                    -0.2606,
                    3.40582
                ]
            ],
            [
                [
                    3.12352,
                    0.17591,
                    -0.16026
                ],
                [
                    -0.15558,
                    3.23137,
                    0.01993
                ],
                [
                    0.05721,
                    0.2606,
                    3.40582
                ]
            ],
            [
                [
                    -2.16718,
                    -0.41217,
                    0.53778
                ],
                [
                    -0.42538,
                    -1.73679,
                    -0.1776
                ],
                [
                    0.49768,
                    -0.15997,
                    -2.30785
                ]
            ],
            [
                [
                    -1.57289,
                    0.34015,
                    -0.19671
                ],
                [
                    0.40501,
                    -2.23014,
                    0.72182
                ],
                [
                    -0.21011,
                    0.65122,
                    -1.90089
                ]
            ],
            [
                [
                    -1.57296,
                    0.34018,
                    -0.19676
                ],
                [
                    0.40504,
                    -2.23013,
                    0.72186
                ],
                [
                    -0.21004,
                    0.65111,
                    -1.90084
                ]
            ],
            [
                [
                    -1.57289,
                    -0.34015,
                    -0.19671
                ],
                [
                    -0.40504,
                    -2.23013,
                    -0.72186
                ],
                [
                    -0.21011,
                    -0.65122,
                    -1.90089
                ]
            ],
            [
                [
                    -1.70804,
                    0.28253,
                    0.11897
                ],
                [
                    0.26687,
                    -1.58164,
                    0.24455
                ],
                [
                    0.05592,
                    0.33881,
                    -2.84255
                ]
            ],
            [
                [
                    -1.70808,
                    -0.28256,
                    0.11886
                ],
                [
                    -0.26687,
                    -1.58164,
                    -0.24455
                ],
                [
                    0.05602,
                    -0.33876,
                    -2.84235
                ]
            ],
            [
                [
                    -2.2073,
                    -0.54595,
                    -0.27599
                ],
                [
                    -0.53768,
                    -2.2004,
                    0.01595
                ],
                [
                    -0.22497,
                    -0.00539,
                    -1.44117
                ]
            ],
            [
                [
                    -2.16722,
                    0.41211,
                    0.53774
                ],
                [
                    0.42538,
                    -1.73679,
                    0.1776
                ],
                [
                    0.49787,
                    0.16002,
                    -2.308
                ]
            ],
            [
                [
                    -2.16722,
                    -0.41211,
                    0.53774
                ],
                [
                    -0.42532,
                    -1.73677,
                    -0.17764
                ],
                [
                    0.49787,
                    -0.16002,
                    -2.308
                ]
            ],
            [
                [
                    -2.32115,
                    0.0,
                    0.38942
                ],
                [
                    0.0,
                    -2.13582,
                    2e-05
                ],
                [
                    0.5012,
                    -0.0,
                    -1.61857
                ]
            ],
            [
                [
                    -1.70804,
                    -0.28253,
                    0.11897
                ],
                [
                    -0.26685,
                    -1.5816,
                    -0.24448
                ],
                [
                    0.05592,
                    -0.33881,
                    -2.84255
                ]
            ],
            [
                [
                    -2.20726,
                    0.54591,
                    -0.27604
                ],
                [
                    0.53768,
                    -2.2004,
                    -0.01595
                ],
                [
                    -0.225,
                    0.00546,
                    -1.44119
                ]
            ],
            [
                [
                    -2.42429,
                    0.0,
                    -0.43075
                ],
                [
                    -4e-05,
                    -1.88103,
                    1e-05
                ],
                [
                    -0.44038,
                    -0.0,
                    -1.70014
                ]
            ],
            [
                [
                    -1.57296,
                    -0.34018,
                    -0.19676
                ],
                [
                    -0.40501,
                    -2.23014,
                    -0.72182
                ],
                [
                    -0.21004,
                    -0.65111,
                    -1.90084
                ]
            ],
            [
                [
                    -2.42424,
                    0.0,
                    -0.43083
                ],
                [
                    4e-05,
                    -1.88103,
                    -1e-05
                ],
                [
                    -0.4404,
                    -0.0,
                    -1.70008
                ]
            ],
            [
                [
                    -2.20726,
                    -0.54591,
                    -0.27604
                ],
                [
                    -0.53768,
                    -2.20037,
                    0.0159
                ],
                [
                    -0.225,
                    -0.00546,
                    -1.44119
                ]
            ],
            [
                [
                    -2.32118,
                    0.0,
                    0.38938
                ],
                [
                    -0.0,
                    -2.13582,
                    -2e-05
                ],
                [
                    0.50116,
                    -0.0,
                    -1.61848
                ]
            ],
            [
                [
                    -2.2073,
                    0.54595,
                    -0.27599
                ],
                [
                    0.53768,
                    -2.20037,
                    -0.0159
                ],
                [
                    -0.22497,
                    0.00539,
                    -1.44117
                ]
            ],
            [
                [
                    -1.70808,
                    0.28256,
                    0.11886
                ],
                [
                    0.26685,
                    -1.5816,
                    0.24448
                ],
                [
                    0.05602,
                    0.33876,
                    -2.84235
                ]
            ],
            [
                [
                    -2.16718,
                    0.41217,
                    0.53778
                ],
                [
                    0.42532,
                    -1.73677,
                    0.17764
                ],
                [
                    0.49768,
                    0.15997,
                    -2.30785
                ]
            ]
        ]
    },
    "band_gap": 4.8632,
    "is_direct": false,
    "formula": "BaY2Si3O10"
}