{
    "mp_id": "mp-504598",
    "nelements": 3,
    "nsites": 20,
    "elements": [
        "O",
        "Pb",
        "Rb"
    ],
    "structure": {
        "@module": "pymatgen.core.structure",
        "@class": "Structure",
        "charge": null,
        "lattice": {
            "matrix": [
                [
                    7.55958854,
                    1.818e-05,
                    -0.00045939
                ],
                [
                    3.75351743,
                    6.79388594,
                    0.00061888
                ],
                [
                    3.55462147,
                    -0.7941166,
                    9.71894171
                ]
            ],
            "a": 7.559588553980237,
            "b": 7.761815486473248,
            "c": 10.379006837446356,
            "alpha": 84.33429411697128,
            "beta": 69.9753273206217,
            "gamma": 61.07988787156895,
            "volume": 499.17047073317866
        },
        "sites": [
            {
                "species": [
                    {
                        "element": "Rb",
                        "occu": 1
                    }
                ],
                "abc": [
                    0.92737293,
                    0.06594105,
                    0.82219815
                ],
                "xyz": [
                    10.180671851046004,
                    -0.20490836730058554,
                    7.990510677666546
                ],
                "label": "Rb",
                "properties": {}
            },
            {
                "species": [
                    {
                        "element": "Rb",
                        "occu": 1
                    }
                ],
                "abc": [
                    0.07262707,
                    0.93405895,
                    0.17780185
                ],
                "xyz": [
                    4.687055588953997,
                    6.204695887300586,
                    1.7285905223334521
                ],
                "label": "Rb",
                "properties": {}
            },
            {
                "species": [
                    {
                        "element": "Rb",
                        "occu": 1
                    }
                ],
                "abc": [
                    0.75971697,
                    0.73405858,
                    0.50446267
                ],
                "xyz": [
                    10.291623212322099,
                    4.586521897125557,
                    4.902948572396108
                ],
                "label": "Rb",
                "properties": {}
            },
            {
                "species": [
                    {
                        "element": "Rb",
                        "occu": 1
                    }
                ],
                "abc": [
                    0.24028303,
                    0.26594142,
                    0.49553733
                ],
                "xyz": [
                    4.576104227677902,
                    1.4132656228744422,
                    4.816152627603891
                ],
                "label": "Rb",
                "properties": {}
            },
            {
                "species": [
                    {
                        "element": "Rb",
                        "occu": 1
                    }
                ],
                "abc": [
                    0.39602422,
                    0.56904488,
                    0.8609196
                ],
                "xyz": [
                    8.189943324710509,
                    3.1823626635559465,
                    8.367397650325422
                ],
                "label": "Rb",
                "properties": {}
            },
            {
                "species": [
                    {
                        "element": "Rb",
                        "occu": 1
                    }
                ],
                "abc": [
                    0.60397578,
                    0.43095512,
                    0.1390804
                ],
                "xyz": [
                    6.677784115289491,
                    2.817424856444054,
                    1.351703549674575
                ],
                "label": "Rb",
                "properties": {}
            },
            {
                "species": [
                    {
                        "element": "Rb",
                        "occu": 1
                    }
                ],
                "abc": [
                    0.93404909,
                    0.55087296,
                    0.82907482
                ],
                "xyz": [
                    12.075785209045506,
                    3.0842029614786264,
                    8.05764168025477
                ],
                "label": "Rb",
                "properties": {}
            },
            {
                "species": [
                    {
                        "element": "Rb",
                        "occu": 1
                    }
                ],
                "abc": [
                    0.06595091,
                    0.44912704,
                    0.17092518
                ],
                "xyz": [
                    2.7919422309544935,
                    2.915584558521373,
                    1.6614595197452282
                ],
                "label": "Rb",
                "properties": {}
            },
            {
                "species": [
                    {
                        "element": "Pb",
                        "occu": 1
                    }
                ],
                "abc": [
                    0.40214068,
                    0.06044412,
                    0.87204358
                ],
                "xyz": [
                    6.366680966200481,
                    -0.2818465148601928,
                    8.475193390849721
                ],
                "label": "Pb",
                "properties": {}
            },
            {
                "species": [
                    {
                        "element": "Pb",
                        "occu": 1
                    }
                ],
                "abc": [
                    0.59785932,
                    0.93955588,
                    0.12795642
                ],
                "xyz": [
                    8.501046473799517,
                    6.281634034860193,
                    1.2439078091502775
                ],
                "label": "Pb",
                "properties": {}
            },
            {
                "species": [
                    {
                        "element": "Pb",
                        "occu": 1
                    }
                ],
                "abc": [
                    0.3044933,
                    0.70755138,
                    0.47079062
                ],
                "xyz": [
                    6.631132944363946,
                    4.433166261631499,
                    4.575884601615727
                ],
                "label": "Pb",
                "properties": {}
            },
            {
                "species": [
                    {
                        "element": "Pb",
                        "occu": 1
                    }
                ],
                "abc": [
                    0.6955067,
                    0.29244862,
                    0.52920938
                ],
                "xyz": [
                    8.236594495636053,
                    1.5666212583685009,
                    5.143216598384272
                ],
                "label": "Pb",
                "properties": {}
            },
            {
                "species": [
                    {
                        "element": "O",
                        "occu": 1
                    }
                ],
                "abc": [
                    0.06406489,
                    0.21561382,
                    0.98078044
                ],
                "xyz": [
                    4.77991764915929,
                    0.6860028365080872,
                    9.532251934979257
                ],
                "label": "O",
                "properties": {}
            },
            {
                "species": [
                    {
                        "element": "O",
                        "occu": 1
                    }
                ],
                "abc": [
                    0.93593511,
                    0.78438618,
                    0.01921956
                ],
                "xyz": [
                    10.08780979084071,
                    5.313784683491914,
                    0.1868492650207431
                ],
                "label": "O",
                "properties": {}
            },
            {
                "species": [
                    {
                        "element": "O",
                        "occu": 1
                    }
                ],
                "abc": [
                    0.50408093,
                    0.19560034,
                    0.99361701
                ],
                "xyz": [
                    8.076766063867673,
                    0.539847802293161,
                    9.656795285654473
                ],
                "label": "O",
                "properties": {}
            },
            {
                "species": [
                    {
                        "element": "O",
                        "occu": 1
                    }
                ],
                "abc": [
                    0.49591907,
                    0.80439966,
                    0.00638299
                ],
                "xyz": [
                    6.790961376132327,
                    5.459939717706838,
                    0.062305914345526396
                ],
                "label": "O",
                "properties": {}
            },
            {
                "species": [
                    {
                        "element": "O",
                        "occu": 1
                    }
                ],
                "abc": [
                    0.19443089,
                    0.59392394,
                    0.35200132
                ],
                "xyz": [
                    4.950352838290615,
                    3.7555249487150726,
                    3.4213585589644873
                ],
                "label": "O",
                "properties": {}
            },
            {
                "species": [
                    {
                        "element": "O",
                        "occu": 1
                    }
                ],
                "abc": [
                    0.80556911,
                    0.40607606,
                    0.64799868
                ],
                "xyz": [
                    9.917374601709385,
                    2.2442625712849282,
                    6.297742641035513
                ],
                "label": "O",
                "properties": {}
            },
            {
                "species": [
                    {
                        "element": "O",
                        "occu": 1
                    }
                ],
                "abc": [
                    0.66094853,
                    0.51492353,
                    0.37173776
                ],
                "xyz": [
                    8.250660400795681,
                    3.203140620623628,
                    3.6129126635750186
                ],
                "label": "O",
                "properties": {}
            },
            {
                "species": [
                    {
                        "element": "O",
                        "occu": 1
                    }
                ],
                "abc": [
                    0.33905147,
                    0.48507647,
                    0.62826224
                ],
                "xyz": [
                    6.6170670392043185,
                    2.796646899376372,
                    6.10618853642498
                ],
                "label": "O",
                "properties": {}
            }
        ]
    },
    "spacegroup": {
        "source": "spglib",
        "symbol": "P-1",
        "number": 2,
        "point_group": "-1",
        "crystal_system": "triclinic",
        "hall": "-P 1"
    },
    "dielectric": {
        "epsilon_ionic": [
            [
                4.78865701,
                -0.44433271,
                0.26613633
            ],
            [
                -0.44433271,
                4.24542918,
                -0.82595903
            ],
            [
                0.26613633,
                -0.82595903,
                3.9750266
            ]
        ],
        "epsilon_ionic_avg": 4.33637093,
        "epsilon_ionic_eig": [
            5.386411718326309,
            4.354701796199457,
            3.267999275474234
        ],
        "epsilon_electronic": [
            [
                3.89887525,
                -0.1203774,
                0.11135457
            ],
            [
                -0.12037758,
                3.78657477,
                -0.13692469
            ],
            [
                0.111356,
                -0.13692449,
                3.79571552
            ]
        ],
        "epsilon_electronic_avg": 3.827055180000001,
        "epsilon_electronic_eig": [
            4.077983273151571,
            3.749600321727106,
            3.653581945121327
        ]
    },
    "phonon": {
        "lowest_freq": -0.03200723206165274,
        "frequency": [
            -0.03200723206165274,
            -0.030008015559692146,
            -0.019209628980450536,
            0.9151575157985643,
            1.0921198879691953,
            1.1327322823624295,
            1.463983474337531,
            1.4724535914819135,
            1.4823946518305011,
            1.6240954326589356,
            1.6585616179279066,
            1.7830555862628379,
            1.797964517995975,
            1.8771504238455485,
            1.8843188360686092,
            1.9163981343776895,
            1.9589943335227993,
            1.9729228858280652,
            2.0688763439925832,
            2.255975197668633,
            2.2584981289566533,
            2.3691598966551104,
            2.4762349296358064,
            2.4890088389105367,
            2.68758540352164,
            2.7061226389703763,
            2.8113013207348554,
            3.047206901375213,
            3.093826010424216,
            3.1715530791601365,
            3.2549636772994766,
            3.2692374673516476,
            3.4423345351686288,
            3.53803889788843,
            3.944413448088242,
            4.055849102131448,
            5.323148513548321,
            5.640961654953867,
            5.7203230639807305,
            5.9004388826459255,
            6.07578619191696,
            6.443529689322345,
            6.446137253925969,
            6.598267196860338,
            8.188761775387835,
            8.562066586485788,
            8.61121350851752,
            9.094547262702157,
            10.044061636106298,
            10.294330559809334,
            10.687050420367608,
            11.195939441553595,
            11.590800414073334,
            12.023110369716937,
            12.178665214859079,
            12.216571422755298,
            14.669728218630558,
            14.81061372630793,
            15.140047313797533,
            15.216784822606003
        ]
    },
    "born_effective_charge": {
        "avg_abs_trace": 1.6200331666666667,
        "tensors": [
            [
                [
                    1.39948,
                    0.03301,
                    -0.003
                ],
                [
                    0.00522,
                    1.05871,
                    -0.19593
                ],
                [
                    -0.01459,
                    -0.2176,
                    1.21074
                ]
            ],
            [
                [
                    1.39964,
                    0.03302,
                    -0.00257
                ],
                [
                    0.00521,
                    1.05863,
                    -0.19597
                ],
                [
                    -0.01456,
                    -0.21767,
                    1.21084
                ]
            ],
            [
                [
                    1.44452,
                    0.20724,
                    -0.10422
                ],
                [
                    0.15884,
                    1.15555,
                    -0.053
                ],
                [
                    -0.01952,
                    -0.0523,
                    0.98954
                ]
            ],
            [
                [
                    1.44487,
                    0.20687,
                    -0.1042
                ],
                [
                    0.15884,
                    1.15546,
                    -0.05308
                ],
                [
                    -0.01933,
                    -0.0524,
                    0.98954
                ]
            ],
            [
                [
                    1.18984,
                    0.06974,
                    -0.00383
                ],
                [
                    0.0465,
                    1.21115,
                    0.15762
                ],
                [
                    -0.00627,
                    0.16542,
                    1.39013
                ]
            ],
            [
                [
                    1.18989,
                    0.06979,
                    -0.00356
                ],
                [
                    0.04647,
                    1.21106,
                    0.1578
                ],
                [
                    -0.00638,
                    0.16553,
                    1.39027
                ]
            ],
            [
                [
                    1.17203,
                    -0.11536,
                    0.04154
                ],
                [
                    -0.07571,
                    1.26147,
                    0.18332
                ],
                [
                    0.04152,
                    0.17566,
                    1.26813
                ]
            ],
            [
                [
                    1.17206,
                    -0.11533,
                    0.04177
                ],
                [
                    -0.0756,
                    1.26144,
                    0.18318
                ],
                [
                    0.04159,
                    0.17559,
                    1.2681
                ]
            ],
            [
                [
                    1.87216,
                    -0.56821,
                    0.21342
                ],
                [
                    -0.63278,
                    1.35342,
                    -0.33966
                ],
                [
                    0.27455,
                    -0.22868,
                    1.53733
                ]
            ],
            [
                [
                    1.87228,
                    -0.56801,
                    0.21358
                ],
                [
                    -0.63271,
                    1.35348,
                    -0.33965
                ],
                [
                    0.27472,
                    -0.22872,
                    1.53749
                ]
            ],
            [
                [
                    1.79044,
                    -0.39723,
                    0.44214
                ],
                [
                    -0.35199,
                    1.73333,
                    -0.32343
                ],
                [
                    0.43956,
                    -0.42141,
                    1.26204
                ]
            ],
            [
                [
                    1.79036,
                    -0.39728,
                    0.44217
                ],
                [
                    -0.35195,
                    1.73354,
                    -0.32328
                ],
                [
                    0.43992,
                    -0.4211,
                    1.26204
                ]
            ],
            [
                [
                    -2.46379,
                    0.60457,
                    0.56716
                ],
                [
                    0.52452,
                    -1.76831,
                    -0.33401
                ],
                [
                    0.2306,
                    -0.18227,
                    -1.75145
                ]
            ],
            [
                [
                    -2.4635,
                    0.60438,
                    0.56705
                ],
                [
                    0.52426,
                    -1.7681,
                    -0.33396
                ],
                [
                    0.23036,
                    -0.18205,
                    -1.75142
                ]
            ],
            [
                [
                    -1.99198,
                    -0.08352,
                    -0.79937
                ],
                [
                    0.02634,
                    -2.04198,
                    0.58748
                ],
                [
                    -0.46709,
                    0.29496,
                    -2.04686
                ]
            ],
            [
                [
                    -1.99197,
                    -0.08367,
                    -0.79926
                ],
                [
                    0.02619,
                    -2.04205,
                    0.5876
                ],
                [
                    -0.46694,
                    0.29518,
                    -2.04681
                ]
            ],
            [
                [
                    -2.5753,
                    -0.50865,
                    -0.57374
                ],
                [
                    -0.08675,
                    -1.6099,
                    0.02392
                ],
                [
                    -0.55869,
                    -0.25111,
                    -1.87053
                ]
            ],
            [
                [
                    -2.5755,
                    -0.50871,
                    -0.57392
                ],
                [
                    -0.08646,
                    -1.60997,
                    0.02408
                ],
                [
                    -0.55843,
                    -0.25126,
                    -1.87005
                ]
            ],
            [
                [
                    -1.83784,
                    0.75867,
                    0.21956
                ],
                [
                    0.38577,
                    -2.35348,
                    0.29357
                ],
                [
                    0.07944,
                    0.71711,
                    -1.98967
                ]
            ],
            [
                [
                    -1.8377,
                    0.75869,
                    0.21929
                ],
                [
                    0.38576,
                    -2.35344,
                    0.29339
                ],
                [
                    0.07953,
                    0.7171,
                    -1.98939
                ]
            ]
        ]
    },
    "band_gap": 1.837,
    "is_direct": true,
    "formula": "Rb2PbO2"
}