{
    "mp_id": "mp-553310",
    "nelements": 3,
    "nsites": 8,
    "elements": [
        "Cs",
        "Cu",
        "O"
    ],
    "structure": {
        "@module": "pymatgen.core.structure",
        "@class": "Structure",
        "charge": null,
        "lattice": {
            "matrix": [
                [
                    2.62617708,
                    -5.9956044,
                    0.0
                ],
                [
                    2.62617708,
                    5.9956044,
                    0.0
                ],
                [
                    0.0,
                    0.0,
                    5.39638944
                ]
            ],
            "a": 6.545538799580727,
            "b": 6.545538799580727,
            "c": 5.39638944,
            "alpha": 90.0,
            "beta": 90.0,
            "gamma": 132.6915211508379,
            "volume": 169.93790336397163
        },
        "sites": [
            {
                "species": [
                    {
                        "element": "Cs",
                        "occu": 1
                    }
                ],
                "abc": [
                    0.81481386,
                    0.18518614,
                    0.25
                ],
                "xyz": [
                    2.6261770800000006,
                    -3.7749987283939683,
                    1.34909736
                ],
                "label": "Cs",
                "properties": {}
            },
            {
                "species": [
                    {
                        "element": "Cs",
                        "occu": 1
                    }
                ],
                "abc": [
                    0.18518614,
                    0.81481386,
                    0.75
                ],
                "xyz": [
                    2.6261770800000006,
                    3.7749987283939683,
                    4.04729208
                ],
                "label": "Cs",
                "properties": {}
            },
            {
                "species": [
                    {
                        "element": "Cu",
                        "occu": 1
                    }
                ],
                "abc": [
                    0.50183795,
                    0.49816205,
                    0.25
                ],
                "xyz": [
                    2.62617708,
                    -0.022039242213959476,
                    1.34909736
                ],
                "label": "Cu",
                "properties": {}
            },
            {
                "species": [
                    {
                        "element": "Cu",
                        "occu": 1
                    }
                ],
                "abc": [
                    0.49816205,
                    0.50183795,
                    0.75
                ],
                "xyz": [
                    2.62617708,
                    0.022039242213959476,
                    4.04729208
                ],
                "label": "Cu",
                "properties": {}
            },
            {
                "species": [
                    {
                        "element": "O",
                        "occu": 1
                    }
                ],
                "abc": [
                    0.60070772,
                    0.39929228,
                    0.50359983
                ],
                "xyz": [
                    2.6261770799999997,
                    -1.207607298291936,
                    2.717620804597795
                ],
                "label": "O",
                "properties": {}
            },
            {
                "species": [
                    {
                        "element": "O",
                        "occu": 1
                    }
                ],
                "abc": [
                    0.39929228,
                    0.60070772,
                    0.49640017
                ],
                "xyz": [
                    2.6261770799999997,
                    1.207607298291936,
                    2.678768635402205
                ],
                "label": "O",
                "properties": {}
            },
            {
                "species": [
                    {
                        "element": "O",
                        "occu": 1
                    }
                ],
                "abc": [
                    0.39929228,
                    0.60070772,
                    0.00359983
                ],
                "xyz": [
                    2.6261770799999997,
                    1.207607298291936,
                    0.019426084597795202
                ],
                "label": "O",
                "properties": {}
            },
            {
                "species": [
                    {
                        "element": "O",
                        "occu": 1
                    }
                ],
                "abc": [
                    0.60070772,
                    0.39929228,
                    0.99640017
                ],
                "xyz": [
                    2.6261770799999997,
                    -1.207607298291936,
                    5.376963355402205
                ],
                "label": "O",
                "properties": {}
            }
        ]
    },
    "spacegroup": {
        "source": "spglib",
        "symbol": "Cmcm",
        "number": 63,
        "point_group": "mmm",
        "crystal_system": "orthorhombic",
        "hall": "-C 2c 2"
    },
    "dielectric": {
        "epsilon_ionic": [
            [
                2.92073223,
                -0.0,
                3e-08
            ],
            [
                -0.0,
                2.20483958,
                0.0
            ],
            [
                3e-08,
                0.0,
                4.69813615
            ]
        ],
        "epsilon_ionic_avg": 3.27456932,
        "epsilon_ionic_eig": [
            2.9207322299999996,
            4.698136150000001,
            2.20483958
        ],
        "epsilon_electronic": [
            [
                2.60875459,
                0.0,
                0.0
            ],
            [
                0.0,
                3.38024457,
                0.0
            ],
            [
                0.0,
                0.0,
                5.92539508
            ]
        ],
        "epsilon_electronic_avg": 3.971464746666667,
        "epsilon_electronic_eig": [
            2.60875459,
            3.38024457,
            5.92539508
        ]
    },
    "phonon": {
        "lowest_freq": -0.12434685622571424,
        "frequency": [
            -0.12434685622571424,
            -0.02264863689307633,
            -0.017645763996297928,
            1.5982684719505016,
            1.7276042255508692,
            1.844513002683073,
            2.1286202391087103,
            2.691626147924495,
            3.0674633091845793,
            3.256358434494353,
            3.82747678960344,
            5.667886228250658,
            6.497493955603906,
            7.609923293102304,
            9.697323230429873,
            10.30354518141634,
            13.759785599972963,
            15.001201396808213,
            17.719812607961096,
            17.944925796295195,
            18.069056747004556,
            18.480170068980758,
            18.505859154910294,
            19.96417453022404
        ]
    },
    "born_effective_charge": {
        "avg_abs_trace": 1.5409450000000002,
        "tensors": [
            [
                [
                    1.43521,
                    3e-05,
                    0.0
                ],
                [
                    0.0,
                    1.5192,
                    -0.0
                ],
                [
                    -0.0,
                    0.00057,
                    1.05121
                ]
            ],
            [
                [
                    1.43521,
                    -3e-05,
                    0.0
                ],
                [
                    0.0,
                    1.51915,
                    -0.0
                ],
                [
                    0.0,
                    -0.00057,
                    1.05121
                ]
            ],
            [
                [
                    0.19332,
                    3e-05,
                    0.0
                ],
                [
                    0.0,
                    0.76968,
                    -0.0
                ],
                [
                    -0.0,
                    8e-05,
                    4.27717
                ]
            ],
            [
                [
                    0.19332,
                    -3e-05,
                    0.0
                ],
                [
                    0.0,
                    0.76949,
                    -0.0
                ],
                [
                    -0.0,
                    -8e-05,
                    4.27717
                ]
            ],
            [
                [
                    -0.81426,
                    -1e-05,
                    0.00012
                ],
                [
                    0.0,
                    -1.14431,
                    -0.00788
                ],
                [
                    0.0,
                    -0.04503,
                    -2.66404
                ]
            ],
            [
                [
                    -0.81426,
                    1e-05,
                    -0.00012
                ],
                [
                    0.0,
                    -1.14446,
                    -0.00776
                ],
                [
                    0.0,
                    -0.04433,
                    -2.66434
                ]
            ],
            [
                [
                    -0.81426,
                    1e-05,
                    0.00012
                ],
                [
                    0.0,
                    -1.14446,
                    0.00776
                ],
                [
                    -0.0,
                    0.04503,
                    -2.66404
                ]
            ],
            [
                [
                    -0.81426,
                    -1e-05,
                    -0.00012
                ],
                [
                    0.0,
                    -1.14431,
                    0.00788
                ],
                [
                    -0.0,
                    0.04433,
                    -2.66434
                ]
            ]
        ]
    },
    "band_gap": 1.3435000000000001,
    "is_direct": false,
    "formula": "CsCuO2"
}