{
    "mp_id": "mp-554278",
    "nelements": 2,
    "nsites": 12,
    "elements": [
        "O",
        "Ti"
    ],
    "structure": {
        "@module": "pymatgen.core.structure",
        "@class": "Structure",
        "charge": null,
        "lattice": {
            "matrix": [
                [
                    6.19069258,
                    -1.91966298,
                    0.0014979
                ],
                [
                    6.19069258,
                    1.91966298,
                    0.0014979
                ],
                [
                    -1.90921576,
                    0.0,
                    6.26607574
                ]
            ],
            "a": 6.48149541545421,
            "b": 6.48149541545421,
            "c": 6.550481661500085,
            "alpha": 106.150651477408,
            "beta": 106.150651477408,
            "gamma": 34.45613023746301,
            "volume": 148.94361142167963
        },
        "sites": [
            {
                "species": [
                    {
                        "element": "Ti",
                        "occu": 1
                    }
                ],
                "abc": [
                    0.80159454,
                    0.80159454,
                    0.71000969
                ],
                "xyz": [
                    8.569289051992312,
                    0.0,
                    4.451375910596852
                ],
                "label": "Ti",
                "properties": {}
            },
            {
                "species": [
                    {
                        "element": "Ti",
                        "occu": 1
                    }
                ],
                "abc": [
                    0.1019642,
                    0.1019642,
                    0.70408524
                ],
                "xyz": [
                    -0.08179260386011,
                    0.0,
                    4.412156905606437
                ],
                "label": "Ti",
                "properties": {}
            },
            {
                "species": [
                    {
                        "element": "Ti",
                        "occu": 1
                    }
                ],
                "abc": [
                    0.19840546,
                    0.19840546,
                    0.28999031
                ],
                "xyz": [
                    1.9028803480076883,
                    0.0,
                    1.8176956294031472
                ],
                "label": "Ti",
                "properties": {}
            },
            {
                "species": [
                    {
                        "element": "Ti",
                        "occu": 1
                    }
                ],
                "abc": [
                    0.8980358,
                    0.8980358,
                    0.29591476
                ],
                "xyz": [
                    10.553962003860113,
                    0.0,
                    1.8569146343935623
                ],
                "label": "Ti",
                "properties": {}
            },
            {
                "species": [
                    {
                        "element": "O",
                        "occu": 1
                    }
                ],
                "abc": [
                    0.05924883,
                    0.05924883,
                    0.37244621
                ],
                "xyz": [
                    0.022502410625093283,
                    0.0,
                    2.3339536585808593
                ],
                "label": "O",
                "properties": {}
            },
            {
                "species": [
                    {
                        "element": "O",
                        "occu": 1
                    }
                ],
                "abc": [
                    0.63830939,
                    0.63830939,
                    0.70394713
                ],
                "xyz": [
                    6.559167454031884,
                    0.0,
                    4.412898280806188
                ],
                "label": "O",
                "properties": {}
            },
            {
                "species": [
                    {
                        "element": "O",
                        "occu": 1
                    }
                ],
                "abc": [
                    0.13482399,
                    0.13482399,
                    0.0035695
                ],
                "xyz": [
                    1.6624928033426687,
                    0.0,
                    0.022770663063172002
                ],
                "label": "O",
                "properties": {}
            },
            {
                "species": [
                    {
                        "element": "O",
                        "occu": 1
                    }
                ],
                "abc": [
                    0.94075117,
                    0.94075117,
                    0.62755379
                ],
                "xyz": [
                    10.449666989374906,
                    0.0,
                    3.9351178814191403
                ],
                "label": "O",
                "properties": {}
            },
            {
                "species": [
                    {
                        "element": "O",
                        "occu": 1
                    }
                ],
                "abc": [
                    0.73799634,
                    0.73799634,
                    0.35260963
                ],
                "xyz": [
                    8.464209069486547,
                    0.0,
                    2.211689537668748
                ],
                "label": "O",
                "properties": {}
            },
            {
                "species": [
                    {
                        "element": "O",
                        "occu": 1
                    }
                ],
                "abc": [
                    0.86517601,
                    0.86517601,
                    0.9964305
                ],
                "xyz": [
                    8.809676596657331,
                    0.0,
                    6.246300876936828
                ],
                "label": "O",
                "properties": {}
            },
            {
                "species": [
                    {
                        "element": "O",
                        "occu": 1
                    }
                ],
                "abc": [
                    0.26200366,
                    0.26200366,
                    0.64739037
                ],
                "xyz": [
                    2.0079603305134546,
                    0.0,
                    4.057382002331251
                ],
                "label": "O",
                "properties": {}
            },
            {
                "species": [
                    {
                        "element": "O",
                        "occu": 1
                    }
                ],
                "abc": [
                    0.36169061,
                    0.36169061,
                    0.29605287
                ],
                "xyz": [
                    3.9130019459681176,
                    0.0,
                    1.8561732591938118
                ],
                "label": "O",
                "properties": {}
            }
        ]
    },
    "spacegroup": {
        "source": "spglib",
        "symbol": "C2/m",
        "number": 12,
        "point_group": "2/m",
        "crystal_system": "monoclinic",
        "hall": "-C 2y"
    },
    "dielectric": {
        "epsilon_ionic": [
            [
                14.54963292,
                -4e-08,
                -0.65891327
            ],
            [
                -4e-08,
                17.31737848,
                1.9e-07
            ],
            [
                -0.65891327,
                1.9e-07,
                20.76765851
            ]
        ],
        "epsilon_ionic_avg": 17.54488997,
        "epsilon_ionic_eig": [
            14.480575977430389,
            20.83671545256962,
            17.317378479999984
        ],
        "epsilon_electronic": [
            [
                5.82319841,
                0.0,
                0.03209918
            ],
            [
                0.0,
                5.83322413,
                0.0
            ],
            [
                0.0321014,
                0.0,
                6.58732239
            ]
        ],
        "epsilon_electronic_avg": 6.081248309999999,
        "epsilon_electronic_eig": [
            5.821852271735076,
            6.5886685282649236,
            5.83322413
        ]
    },
    "phonon": {
        "lowest_freq": -0.06482591256456803,
        "frequency": [
            -0.06482591256456803,
            -0.021318594669359335,
            -0.014145325063768864,
            4.1310537538189935,
            4.461401784295081,
            4.71338426759156,
            5.749885630501774,
            5.814496768116912,
            6.256502364221966,
            6.352769171428351,
            6.842223805485322,
            7.1788732861485745,
            7.405183227347623,
            8.128243457318979,
            8.629856792213866,
            8.77306636598089,
            9.11672767240163,
            10.71736679564621,
            11.147482251769992,
            11.786667221225613,
            11.808261475284993,
            12.726081868365682,
            12.865112303947946,
            13.476140739878781,
            13.841159556228718,
            13.962830877344356,
            14.384254411001171,
            14.838891450049472,
            15.183414534944932,
            15.992298611656858,
            18.429265066412988,
            19.468024249131787,
            19.843270910341044,
            20.789868650867575,
            24.808556987671892,
            25.06969094341907
        ]
    },
    "born_effective_charge": {
        "avg_abs_trace": 3.9804077777777778,
        "tensors": [
            [
                [
                    5.82077,
                    0.0,
                    -0.58994
                ],
                [
                    0.00023,
                    5.1612,
                    0.00031
                ],
                [
                    -0.31244,
                    0.0,
                    6.27366
                ]
            ],
            [
                [
                    5.46227,
                    0.0,
                    0.70581
                ],
                [
                    -0.00092,
                    6.27284,
                    0.00028
                ],
                [
                    0.34728,
                    0.0,
                    6.83173
                ]
            ],
            [
                [
                    5.82099,
                    0.0,
                    -0.59011
                ],
                [
                    -0.00023,
                    5.1612,
                    -0.00031
                ],
                [
                    -0.31192,
                    0.0,
                    6.27482
                ]
            ],
            [
                [
                    5.4627,
                    0.0,
                    0.70596
                ],
                [
                    0.00092,
                    6.27284,
                    -0.00028
                ],
                [
                    0.34624,
                    0.0,
                    6.83234
                ]
            ],
            [
                [
                    -5.53097,
                    0.0,
                    -0.09168
                ],
                [
                    0.00013,
                    -0.95907,
                    0.00011
                ],
                [
                    0.00589,
                    0.0,
                    -2.98678
                ]
            ],
            [
                [
                    -2.66957,
                    0.0,
                    -0.09776
                ],
                [
                    0.00142,
                    -5.18048,
                    4e-05
                ],
                [
                    -0.03746,
                    0.0,
                    -1.1862
                ]
            ],
            [
                [
                    -0.87353,
                    0.0,
                    -0.08741
                ],
                [
                    -0.00014,
                    -0.95067,
                    -0.00058
                ],
                [
                    -0.15568,
                    0.0,
                    -6.76029
                ]
            ],
            [
                [
                    -5.53071,
                    0.0,
                    -0.09228
                ],
                [
                    -0.00013,
                    -0.95907,
                    -0.00011
                ],
                [
                    0.0063,
                    0.0,
                    -2.98692
                ]
            ],
            [
                [
                    -2.20935,
                    0.0,
                    0.16129
                ],
                [
                    0.00041,
                    -4.34381,
                    0.00073
                ],
                [
                    0.15167,
                    0.0,
                    -2.17282
                ]
            ],
            [
                [
                    -0.87384,
                    0.0,
                    -0.08748
                ],
                [
                    0.00014,
                    -0.95067,
                    0.00058
                ],
                [
                    -0.15452,
                    0.0,
                    -6.76027
                ]
            ],
            [
                [
                    -2.20909,
                    0.0,
                    0.16114
                ],
                [
                    -0.00041,
                    -4.34381,
                    -0.00073
                ],
                [
                    0.15201,
                    0.0,
                    -2.17279
                ]
            ],
            [
                [
                    -2.66967,
                    0.0,
                    -0.09755
                ],
                [
                    -0.00142,
                    -5.18048,
                    -4e-05
                ],
                [
                    -0.03737,
                    0.0,
                    -1.18646
                ]
            ]
        ]
    },
    "band_gap": 2.9406000000000003,
    "is_direct": false,
    "formula": "TiO2"
}