{
    "mp_id": "mp-555050",
    "nelements": 3,
    "nsites": 36,
    "elements": [
        "Ba",
        "Nb",
        "O"
    ],
    "structure": {
        "@module": "pymatgen.core.structure",
        "@class": "Structure",
        "charge": null,
        "lattice": {
            "matrix": [
                [
                    3.86904384,
                    -6.23099177,
                    0.0
                ],
                [
                    3.86904384,
                    6.23099177,
                    0.0
                ],
                [
                    0.0,
                    0.0,
                    10.39407225
                ]
            ],
            "a": 7.334491030306716,
            "b": 7.334491030306716,
            "c": 10.39407225,
            "alpha": 90.0,
            "beta": 90.0,
            "gamma": 116.32477422630534,
            "volume": 501.1601785952906
        },
        "sites": [
            {
                "species": [
                    {
                        "element": "Ba",
                        "occu": 1
                    }
                ],
                "abc": [
                    0.42970758,
                    0.57029242,
                    0.75
                ],
                "xyz": [
                    3.86904384,
                    0.875982981026767,
                    7.7955541875000005
                ],
                "label": "Ba",
                "properties": {}
            },
            {
                "species": [
                    {
                        "element": "Ba",
                        "occu": 1
                    }
                ],
                "abc": [
                    0.13619406,
                    0.86380594,
                    0.25
                ],
                "xyz": [
                    3.86904384,
                    4.533743636034228,
                    2.5985180625
                ],
                "label": "Ba",
                "properties": {}
            },
            {
                "species": [
                    {
                        "element": "Ba",
                        "occu": 1
                    }
                ],
                "abc": [
                    0.57029242,
                    0.42970758,
                    0.25
                ],
                "xyz": [
                    3.86904384,
                    -0.875982981026767,
                    2.5985180625
                ],
                "label": "Ba",
                "properties": {}
            },
            {
                "species": [
                    {
                        "element": "Ba",
                        "occu": 1
                    }
                ],
                "abc": [
                    0.86380594,
                    0.13619406,
                    0.75
                ],
                "xyz": [
                    3.86904384,
                    -4.533743636034228,
                    7.7955541875000005
                ],
                "label": "Ba",
                "properties": {}
            },
            {
                "species": [
                    {
                        "element": "Nb",
                        "occu": 1
                    }
                ],
                "abc": [
                    0.38934002,
                    0.10810229,
                    0.9262847
                ],
                "xyz": [
                    1.9246261052608704,
                    -1.7523899810434822,
                    9.627870095869575
                ],
                "label": "Nb",
                "properties": {}
            },
            {
                "species": [
                    {
                        "element": "Nb",
                        "occu": 1
                    }
                ],
                "abc": [
                    0.89189771,
                    0.61065998,
                    0.5737153
                ],
                "xyz": [
                    5.813461574739129,
                    -1.7523899810434815,
                    5.963238279130426
                ],
                "label": "Nb",
                "properties": {}
            },
            {
                "species": [
                    {
                        "element": "Nb",
                        "occu": 1
                    }
                ],
                "abc": [
                    0.61065998,
                    0.89189771,
                    0.4262847
                ],
                "xyz": [
                    5.813461574739129,
                    1.7523899810434815,
                    4.430833970869576
                ],
                "label": "Nb",
                "properties": {}
            },
            {
                "species": [
                    {
                        "element": "Nb",
                        "occu": 1
                    }
                ],
                "abc": [
                    0.61065998,
                    0.89189771,
                    0.0737153
                ],
                "xyz": [
                    5.813461574739129,
                    1.7523899810434815,
                    0.766202154130425
                ],
                "label": "Nb",
                "properties": {}
            },
            {
                "species": [
                    {
                        "element": "Nb",
                        "occu": 1
                    }
                ],
                "abc": [
                    0.10810229,
                    0.38934002,
                    0.0737153
                ],
                "xyz": [
                    1.9246261052608704,
                    1.7523899810434822,
                    0.766202154130425
                ],
                "label": "Nb",
                "properties": {}
            },
            {
                "species": [
                    {
                        "element": "Nb",
                        "occu": 1
                    }
                ],
                "abc": [
                    0.10810229,
                    0.38934002,
                    0.4262847
                ],
                "xyz": [
                    1.9246261052608704,
                    1.7523899810434822,
                    4.430833970869576
                ],
                "label": "Nb",
                "properties": {}
            },
            {
                "species": [
                    {
                        "element": "Nb",
                        "occu": 1
                    }
                ],
                "abc": [
                    0.38934002,
                    0.10810229,
                    0.5737153
                ],
                "xyz": [
                    1.9246261052608704,
                    -1.7523899810434822,
                    5.963238279130426
                ],
                "label": "Nb",
                "properties": {}
            },
            {
                "species": [
                    {
                        "element": "Nb",
                        "occu": 1
                    }
                ],
                "abc": [
                    0.89189771,
                    0.61065998,
                    0.9262847
                ],
                "xyz": [
                    5.813461574739129,
                    -1.7523899810434815,
                    9.627870095869575
                ],
                "label": "Nb",
                "properties": {}
            },
            {
                "species": [
                    {
                        "element": "O",
                        "occu": 1
                    }
                ],
                "abc": [
                    0.88058687,
                    0.11941313,
                    0.46898208
                ],
                "xyz": [
                    3.86904384,
                    -4.74286730948012,
                    4.8746336234752805
                ],
                "label": "O",
                "properties": {}
            },
            {
                "species": [
                    {
                        "element": "O",
                        "occu": 1
                    }
                ],
                "abc": [
                    0.91682068,
                    0.51357715,
                    0.1097046
                ],
                "xyz": [
                    5.534271912910867,
                    -2.512607116735748,
                    1.14027753855735
                ],
                "label": "O",
                "properties": {}
            },
            {
                "species": [
                    {
                        "element": "O",
                        "occu": 1
                    }
                ],
                "abc": [
                    0.11941313,
                    0.88058687,
                    0.53101792
                ],
                "xyz": [
                    3.86904384,
                    4.74286730948012,
                    5.519438626524721
                ],
                "label": "O",
                "properties": {}
            },
            {
                "species": [
                    {
                        "element": "O",
                        "occu": 1
                    }
                ],
                "abc": [
                    0.33899216,
                    0.66100784,
                    0.38270039
                ],
                "xyz": [
                    3.86904384,
                    2.0064770518909536,
                    3.977815503763178
                ],
                "label": "O",
                "properties": {}
            },
            {
                "species": [
                    {
                        "element": "O",
                        "occu": 1
                    }
                ],
                "abc": [
                    0.88058687,
                    0.11941313,
                    0.03101792
                ],
                "xyz": [
                    3.86904384,
                    -4.74286730948012,
                    0.32240250152472005
                ],
                "label": "O",
                "properties": {}
            },
            {
                "species": [
                    {
                        "element": "O",
                        "occu": 1
                    }
                ],
                "abc": [
                    0.66100784,
                    0.33899216,
                    0.61729961
                ],
                "xyz": [
                    3.86904384,
                    -2.0064770518909536,
                    6.416256746236823
                ],
                "label": "O",
                "properties": {}
            },
            {
                "species": [
                    {
                        "element": "O",
                        "occu": 1
                    }
                ],
                "abc": [
                    0.66100784,
                    0.33899216,
                    0.88270039
                ],
                "xyz": [
                    3.86904384,
                    -2.0064770518909536,
                    9.174851628763179
                ],
                "label": "O",
                "properties": {}
            },
            {
                "species": [
                    {
                        "element": "O",
                        "occu": 1
                    }
                ],
                "abc": [
                    0.31334194,
                    0.31334194,
                    0.0
                ],
                "xyz": [
                    2.424667405541299,
                    0.0,
                    0.0
                ],
                "label": "O",
                "properties": {}
            },
            {
                "species": [
                    {
                        "element": "O",
                        "occu": 1
                    }
                ],
                "abc": [
                    0.70956192,
                    0.86719603,
                    0.25
                ],
                "xyz": [
                    6.100545633618528,
                    0.9822168420812751,
                    2.5985180625
                ],
                "label": "O",
                "properties": {}
            },
            {
                "species": [
                    {
                        "element": "O",
                        "occu": 1
                    }
                ],
                "abc": [
                    0.33899216,
                    0.66100784,
                    0.11729961
                ],
                "xyz": [
                    3.86904384,
                    2.0064770518909536,
                    1.2192206212368226
                ],
                "label": "O",
                "properties": {}
            },
            {
                "species": [
                    {
                        "element": "O",
                        "occu": 1
                    }
                ],
                "abc": [
                    0.08317932,
                    0.48642285,
                    0.6097046
                ],
                "xyz": [
                    2.2038157670891327,
                    2.512607116735748,
                    6.337313663557351
                ],
                "label": "O",
                "properties": {}
            },
            {
                "species": [
                    {
                        "element": "O",
                        "occu": 1
                    }
                ],
                "abc": [
                    0.31334194,
                    0.31334194,
                    0.5
                ],
                "xyz": [
                    2.424667405541299,
                    0.0,
                    5.197036125
                ],
                "label": "O",
                "properties": {}
            },
            {
                "species": [
                    {
                        "element": "O",
                        "occu": 1
                    }
                ],
                "abc": [
                    0.48642285,
                    0.08317932,
                    0.3902954
                ],
                "xyz": [
                    2.2038157670891327,
                    -2.512607116735748,
                    4.05675858644265
                ],
                "label": "O",
                "properties": {}
            },
            {
                "species": [
                    {
                        "element": "O",
                        "occu": 1
                    }
                ],
                "abc": [
                    0.86719603,
                    0.70956192,
                    0.75
                ],
                "xyz": [
                    6.100545633618528,
                    -0.9822168420812751,
                    7.7955541875000005
                ],
                "label": "O",
                "properties": {}
            },
            {
                "species": [
                    {
                        "element": "O",
                        "occu": 1
                    }
                ],
                "abc": [
                    0.51357715,
                    0.91682068,
                    0.8902954
                ],
                "xyz": [
                    5.534271912910867,
                    2.512607116735748,
                    9.25379471144265
                ],
                "label": "O",
                "properties": {}
            },
            {
                "species": [
                    {
                        "element": "O",
                        "occu": 1
                    }
                ],
                "abc": [
                    0.68665806,
                    0.68665806,
                    0.5
                ],
                "xyz": [
                    5.3134202744587,
                    0.0,
                    5.197036125
                ],
                "label": "O",
                "properties": {}
            },
            {
                "species": [
                    {
                        "element": "O",
                        "occu": 1
                    }
                ],
                "abc": [
                    0.08317932,
                    0.48642285,
                    0.8902954
                ],
                "xyz": [
                    2.2038157670891327,
                    2.512607116735748,
                    9.25379471144265
                ],
                "label": "O",
                "properties": {}
            },
            {
                "species": [
                    {
                        "element": "O",
                        "occu": 1
                    }
                ],
                "abc": [
                    0.91682068,
                    0.51357715,
                    0.3902954
                ],
                "xyz": [
                    5.534271912910867,
                    -2.512607116735748,
                    4.05675858644265
                ],
                "label": "O",
                "properties": {}
            },
            {
                "species": [
                    {
                        "element": "O",
                        "occu": 1
                    }
                ],
                "abc": [
                    0.48642285,
                    0.08317932,
                    0.1097046
                ],
                "xyz": [
                    2.2038157670891327,
                    -2.512607116735748,
                    1.14027753855735
                ],
                "label": "O",
                "properties": {}
            },
            {
                "species": [
                    {
                        "element": "O",
                        "occu": 1
                    }
                ],
                "abc": [
                    0.11941313,
                    0.88058687,
                    0.96898208
                ],
                "xyz": [
                    3.86904384,
                    4.74286730948012,
                    10.07166974847528
                ],
                "label": "O",
                "properties": {}
            },
            {
                "species": [
                    {
                        "element": "O",
                        "occu": 1
                    }
                ],
                "abc": [
                    0.13280397,
                    0.29043808,
                    0.25
                ],
                "xyz": [
                    1.6375420463814718,
                    0.9822168420812747,
                    2.5985180625
                ],
                "label": "O",
                "properties": {}
            },
            {
                "species": [
                    {
                        "element": "O",
                        "occu": 1
                    }
                ],
                "abc": [
                    0.68665806,
                    0.68665806,
                    0.0
                ],
                "xyz": [
                    5.3134202744587,
                    0.0,
                    0.0
                ],
                "label": "O",
                "properties": {}
            },
            {
                "species": [
                    {
                        "element": "O",
                        "occu": 1
                    }
                ],
                "abc": [
                    0.51357715,
                    0.91682068,
                    0.6097046
                ],
                "xyz": [
                    5.534271912910867,
                    2.512607116735748,
                    6.337313663557351
                ],
                "label": "O",
                "properties": {}
            },
            {
                "species": [
                    {
                        "element": "O",
                        "occu": 1
                    }
                ],
                "abc": [
                    0.29043808,
                    0.13280397,
                    0.75
                ],
                "xyz": [
                    1.6375420463814718,
                    -0.9822168420812747,
                    7.7955541875000005
                ],
                "label": "O",
                "properties": {}
            }
        ]
    },
    "spacegroup": {
        "source": "spglib",
        "symbol": "Cmcm",
        "number": 63,
        "point_group": "mmm",
        "crystal_system": "orthorhombic",
        "hall": "-C 2c 2"
    },
    "dielectric": {
        "epsilon_ionic": [
            [
                160.61696855,
                2e-08,
                1e-08
            ],
            [
                2e-08,
                37.25509313,
                1e-08
            ],
            [
                1e-08,
                1e-08,
                37.91667957
            ]
        ],
        "epsilon_ionic_avg": 78.59624708333332,
        "epsilon_ionic_eig": [
            160.61696855,
            37.25509313,
            37.91667957
        ],
        "epsilon_electronic": [
            [
                6.33935728,
                0.0,
                0.0
            ],
            [
                0.0,
                5.6812426,
                -0.0
            ],
            [
                0.0,
                -0.0,
                5.17626131
            ]
        ],
        "epsilon_electronic_avg": 5.732287063333334,
        "epsilon_electronic_eig": [
            6.33935728,
            5.6812426,
            5.17626131
        ]
    },
    "phonon": {
        "lowest_freq": -0.05414888965198081,
        "frequency": [
            -0.05414888965198081,
            -0.04731659779874308,
            -0.021584554215649098,
            0.8021981470173517,
            1.0483193482043704,
            1.5339222285333676,
            1.7863934912750832,
            1.9416352575917786,
            2.016007502565553,
            2.0750849968247715,
            2.1083321989856256,
            2.3361721704900407,
            2.4240314908575993,
            2.59093288769091,
            2.60461782551528,
            2.7113728859533452,
            2.7623782706382602,
            3.0742587799202234,
            3.329693804592974,
            3.478031313380397,
            3.606793073200669,
            3.6622312064131806,
            4.24830819660707,
            4.483744457172242,
            4.733949933995617,
            4.7710673502909104,
            4.902311553072736,
            5.051410421785296,
            5.149787318266112,
            5.2459859987560415,
            5.260162425138117,
            5.569029362559456,
            5.6825388777400105,
            5.805604487740961,
            5.910239468590414,
            6.325779295916088,
            6.656376489693063,
            6.725354271656864,
            6.877391458874606,
            6.904551037763642,
            7.002013418233006,
            7.4658319021781026,
            7.525685192172735,
            7.604157350431983,
            7.625058344937028,
            7.75419011144388,
            7.830454617501158,
            7.910395369196144,
            8.157456549175153,
            8.201686163001204,
            8.31752282907255,
            8.390398397411904,
            8.442537392634938,
            8.768007495445437,
            9.0039036487159,
            9.142954645225702,
            9.405586885092003,
            9.481892873915918,
            9.874062439881921,
            10.190677456343463,
            10.442824070743423,
            10.452001381114238,
            10.72352577592978,
            11.07831323321574,
            11.450654828228902,
            11.550469836184647,
            11.64665648884868,
            12.050645571306474,
            12.16584983944208,
            12.271389706725731,
            12.631813259801952,
            12.68028203980614,
            12.739130001135155,
            12.837790685128384,
            12.906018188289956,
            13.213318612953186,
            13.538180542031839,
            13.64099783981188,
            13.777994362883904,
            13.788569528026557,
            13.824041273358498,
            14.05964682746391,
            14.174155220482328,
            14.442455775518182,
            14.537865165279282,
            14.641312162760606,
            14.96388718179682,
            14.9880740544042,
            15.345727226358866,
            15.458478123705577,
            15.826607059423107,
            16.54355226004992,
            16.61789743134607,
            16.964712833106052,
            17.075116837042252,
            17.313852180534454,
            17.413320716017513,
            17.546581727621295,
            18.07609289927527,
            18.235802102944547,
            18.49297066966127,
            22.18786511300895,
            23.90585364172808,
            23.94997258109235,
            24.097479011759493,
            24.35701368609413,
            25.71790731559638,
            25.864056347050933
        ]
    },
    "born_effective_charge": {
        "avg_abs_trace": 4.045723333333334,
        "tensors": [
            [
                [
                    2.76043,
                    -0.0,
                    -0.0
                ],
                [
                    0.0,
                    3.12501,
                    -0.0
                ],
                [
                    -0.0,
                    -9e-05,
                    3.03514
                ]
            ],
            [
                [
                    2.37305,
                    -4e-05,
                    -0.0
                ],
                [
                    0.0,
                    2.69249,
                    -0.0
                ],
                [
                    -0.0,
                    6e-05,
                    3.30041
                ]
            ],
            [
                [
                    2.76043,
                    0.0,
                    -0.0
                ],
                [
                    0.0,
                    3.12465,
                    -0.0
                ],
                [
                    -0.0,
                    9e-05,
                    3.03514
                ]
            ],
            [
                [
                    2.37305,
                    4e-05,
                    -0.0
                ],
                [
                    0.0,
                    2.69305,
                    -0.0
                ],
                [
                    -0.0,
                    -6e-05,
                    3.30041
                ]
            ],
            [
                [
                    8.89487,
                    -0.64166,
                    -1.63124
                ],
                [
                    0.75262,
                    7.72422,
                    -0.30076
                ],
                [
                    0.31833,
                    -0.88531,
                    6.36806
                ]
            ],
            [
                [
                    8.89488,
                    0.64157,
                    -1.63141
                ],
                [
                    -0.75262,
                    7.72422,
                    0.30076
                ],
                [
                    0.31839,
                    0.88571,
                    6.36806
                ]
            ],
            [
                [
                    8.89488,
                    -0.64157,
                    1.63141
                ],
                [
                    0.75271,
                    7.72386,
                    0.30064
                ],
                [
                    -0.31833,
                    0.88531,
                    6.36806
                ]
            ],
            [
                [
                    8.89488,
                    -0.64157,
                    -1.63141
                ],
                [
                    0.75271,
                    7.72386,
                    -0.30064
                ],
                [
                    0.31839,
                    -0.88571,
                    6.36806
                ]
            ],
            [
                [
                    8.89487,
                    0.64166,
                    1.63124
                ],
                [
                    -0.75271,
                    7.72386,
                    -0.30064
                ],
                [
                    -0.31839,
                    -0.88571,
                    6.36806
                ]
            ],
            [
                [
                    8.89487,
                    0.64166,
                    -1.63124
                ],
                [
                    -0.75271,
                    7.72386,
                    0.30064
                ],
                [
                    0.31833,
                    0.88531,
                    6.36806
                ]
            ],
            [
                [
                    8.89487,
                    -0.64166,
                    1.63124
                ],
                [
                    0.75262,
                    7.72422,
                    0.30076
                ],
                [
                    -0.31839,
                    0.88571,
                    6.36806
                ]
            ],
            [
                [
                    8.89488,
                    0.64157,
                    1.63141
                ],
                [
                    -0.75262,
                    7.72422,
                    -0.30076
                ],
                [
                    -0.31833,
                    -0.88531,
                    6.36806
                ]
            ],
            [
                [
                    -6.95879,
                    -5e-05,
                    -1e-05
                ],
                [
                    0.0,
                    -1.24474,
                    -0.07446
                ],
                [
                    -0.0,
                    -0.05272,
                    -1.53779
                ]
            ],
            [
                [
                    -1.75348,
                    0.15554,
                    -0.08473
                ],
                [
                    0.25026,
                    -3.78798,
                    0.6166
                ],
                [
                    0.14584,
                    0.35607,
                    -2.6654
                ]
            ],
            [
                [
                    -6.95879,
                    5e-05,
                    1e-05
                ],
                [
                    0.0,
                    -1.24456,
                    -0.07461
                ],
                [
                    -0.0,
                    -0.05284,
                    -1.53762
                ]
            ],
            [
                [
                    -6.64947,
                    -4e-05,
                    4e-05
                ],
                [
                    0.0,
                    -1.61822,
                    0.08003
                ],
                [
                    -0.0,
                    -0.00164,
                    -1.43456
                ]
            ],
            [
                [
                    -6.95879,
                    -5e-05,
                    1e-05
                ],
                [
                    0.0,
                    -1.24474,
                    0.07446
                ],
                [
                    -0.0,
                    0.05284,
                    -1.53762
                ]
            ],
            [
                [
                    -6.64947,
                    4e-05,
                    -4e-05
                ],
                [
                    0.0,
                    -1.6181,
                    0.07957
                ],
                [
                    -0.0,
                    -0.00169,
                    -1.43438
                ]
            ],
            [
                [
                    -6.64947,
                    4e-05,
                    4e-05
                ],
                [
                    0.0,
                    -1.6181,
                    -0.07957
                ],
                [
                    -0.0,
                    0.00164,
                    -1.43456
                ]
            ],
            [
                [
                    -1.61828,
                    -0.0,
                    -0.0
                ],
                [
                    0.00023,
                    -5.96079,
                    -1.98555
                ],
                [
                    0.00012,
                    -1.58393,
                    -2.10046
                ]
            ],
            [
                [
                    -1.62277,
                    0.14398,
                    -0.0
                ],
                [
                    -0.0169,
                    -1.95703,
                    -0.0
                ],
                [
                    -8e-05,
                    0.00029,
                    -5.50064
                ]
            ],
            [
                [
                    -6.64947,
                    -4e-05,
                    -4e-05
                ],
                [
                    0.0,
                    -1.61822,
                    -0.08003
                ],
                [
                    -0.0,
                    0.00169,
                    -1.43438
                ]
            ],
            [
                [
                    -1.75354,
                    0.15549,
                    0.08444
                ],
                [
                    0.24995,
                    -3.78818,
                    -0.61647
                ],
                [
                    -0.14584,
                    -0.35607,
                    -2.6654
                ]
            ],
            [
                [
                    -1.61828,
                    -0.0,
                    -0.0
                ],
                [
                    0.00023,
                    -5.96079,
                    1.98555
                ],
                [
                    0.00012,
                    1.58393,
                    -2.10046
                ]
            ],
            [
                [
                    -1.75354,
                    -0.15549,
                    -0.08444
                ],
                [
                    -0.25026,
                    -3.78798,
                    -0.6166
                ],
                [
                    0.14579,
                    -0.35607,
                    -2.66522
                ]
            ],
            [
                [
                    -1.62277,
                    -0.14398,
                    -0.0
                ],
                [
                    0.01693,
                    -1.95721,
                    -0.0
                ],
                [
                    -8e-05,
                    -0.00029,
                    -5.50064
                ]
            ],
            [
                [
                    -1.75348,
                    -0.15554,
                    0.08473
                ],
                [
                    -0.24995,
                    -3.78818,
                    0.61647
                ],
                [
                    -0.14579,
                    0.35607,
                    -2.66522
                ]
            ],
            [
                [
                    -1.61854,
                    -0.0,
                    -0.0
                ],
                [
                    -0.00023,
                    -5.96079,
                    1.98555
                ],
                [
                    -0.00012,
                    1.58393,
                    -2.10046
                ]
            ],
            [
                [
                    -1.75354,
                    0.15549,
                    -0.08444
                ],
                [
                    0.24995,
                    -3.78818,
                    0.61647
                ],
                [
                    0.14579,
                    0.35607,
                    -2.66522
                ]
            ],
            [
                [
                    -1.75348,
                    0.15554,
                    0.08473
                ],
                [
                    0.25026,
                    -3.78798,
                    -0.6166
                ],
                [
                    -0.14579,
                    -0.35607,
                    -2.66522
                ]
            ],
            [
                [
                    -1.75354,
                    -0.15549,
                    0.08444
                ],
                [
                    -0.25026,
                    -3.78798,
                    0.6166
                ],
                [
                    -0.14584,
                    0.35607,
                    -2.6654
                ]
            ],
            [
                [
                    -6.95879,
                    5e-05,
                    -1e-05
                ],
                [
                    0.0,
                    -1.24456,
                    0.07461
                ],
                [
                    -0.0,
                    0.05272,
                    -1.53779
                ]
            ],
            [
                [
                    -1.62283,
                    -0.14392,
                    -0.0
                ],
                [
                    0.0169,
                    -1.95703,
                    -0.0
                ],
                [
                    8e-05,
                    0.00029,
                    -5.50064
                ]
            ],
            [
                [
                    -1.61854,
                    -0.0,
                    -0.0
                ],
                [
                    -0.00023,
                    -5.96079,
                    -1.98555
                ],
                [
                    -0.00012,
                    -1.58393,
                    -2.10046
                ]
            ],
            [
                [
                    -1.75348,
                    -0.15554,
                    -0.08473
                ],
                [
                    -0.24995,
                    -3.78818,
                    -0.61647
                ],
                [
                    0.14584,
                    -0.35607,
                    -2.6654
                ]
            ],
            [
                [
                    -1.62283,
                    0.14392,
                    -0.0
                ],
                [
                    -0.01693,
                    -1.95721,
                    -0.0
                ],
                [
                    8e-05,
                    -0.00029,
                    -5.50064
                ]
            ]
        ]
    },
    "band_gap": 2.7045000000000003,
    "is_direct": false,
    "formula": "BaNb2O6"
}