{
    "mp_id": "mp-559893",
    "nelements": 4,
    "nsites": 16,
    "elements": [
        "Bi",
        "Li",
        "O",
        "Pd"
    ],
    "structure": {
        "@module": "pymatgen.core.structure",
        "@class": "Structure",
        "charge": null,
        "lattice": {
            "matrix": [
                [
                    6.88087185,
                    0.0,
                    0.0
                ],
                [
                    0.0,
                    6.88087185,
                    0.0
                ],
                [
                    0.0,
                    0.0,
                    4.27049435
                ]
            ],
            "a": 6.88087185,
            "b": 6.88087185,
            "c": 4.27049435,
            "alpha": 90.0,
            "beta": 90.0,
            "gamma": 90.0,
            "volume": 202.19252265840538
        },
        "sites": [
            {
                "species": [
                    {
                        "element": "Li",
                        "occu": 1
                    }
                ],
                "abc": [
                    0.0,
                    0.0,
                    0.5
                ],
                "xyz": [
                    0.0,
                    0.0,
                    2.135247175
                ],
                "label": "Li",
                "properties": {}
            },
            {
                "species": [
                    {
                        "element": "Li",
                        "occu": 1
                    }
                ],
                "abc": [
                    0.5,
                    0.5,
                    0.5
                ],
                "xyz": [
                    3.440435925,
                    3.440435925,
                    2.135247175
                ],
                "label": "Li",
                "properties": {}
            },
            {
                "species": [
                    {
                        "element": "Bi",
                        "occu": 1
                    }
                ],
                "abc": [
                    0.5,
                    0.0,
                    0.51798898
                ],
                "xyz": [
                    3.440435925,
                    0.0,
                    2.2120690124522633
                ],
                "label": "Bi",
                "properties": {}
            },
            {
                "species": [
                    {
                        "element": "Bi",
                        "occu": 1
                    }
                ],
                "abc": [
                    0.0,
                    0.5,
                    0.48201102
                ],
                "xyz": [
                    0.0,
                    3.440435925,
                    2.058425337547737
                ],
                "label": "Bi",
                "properties": {}
            },
            {
                "species": [
                    {
                        "element": "Pd",
                        "occu": 1
                    }
                ],
                "abc": [
                    0.25,
                    0.25,
                    0.0
                ],
                "xyz": [
                    1.7202179625,
                    1.7202179625,
                    0.0
                ],
                "label": "Pd",
                "properties": {}
            },
            {
                "species": [
                    {
                        "element": "Pd",
                        "occu": 1
                    }
                ],
                "abc": [
                    0.75,
                    0.25,
                    0.0
                ],
                "xyz": [
                    5.1606538875000005,
                    1.7202179625,
                    0.0
                ],
                "label": "Pd",
                "properties": {}
            },
            {
                "species": [
                    {
                        "element": "Pd",
                        "occu": 1
                    }
                ],
                "abc": [
                    0.75,
                    0.75,
                    0.0
                ],
                "xyz": [
                    5.1606538875000005,
                    5.1606538875000005,
                    0.0
                ],
                "label": "Pd",
                "properties": {}
            },
            {
                "species": [
                    {
                        "element": "Pd",
                        "occu": 1
                    }
                ],
                "abc": [
                    0.25,
                    0.75,
                    0.0
                ],
                "xyz": [
                    1.7202179625,
                    5.1606538875000005,
                    0.0
                ],
                "label": "Pd",
                "properties": {}
            },
            {
                "species": [
                    {
                        "element": "O",
                        "occu": 1
                    }
                ],
                "abc": [
                    0.0,
                    0.22627652,
                    0.76630556
                ],
                "xyz": [
                    0.0,
                    1.5569797367839622,
                    3.272503564353586
                ],
                "label": "O",
                "properties": {}
            },
            {
                "species": [
                    {
                        "element": "O",
                        "occu": 1
                    }
                ],
                "abc": [
                    0.77372348,
                    0.0,
                    0.23369444
                ],
                "xyz": [
                    5.323892113216038,
                    0.0,
                    0.997990785646414
                ],
                "label": "O",
                "properties": {}
            },
            {
                "species": [
                    {
                        "element": "O",
                        "occu": 1
                    }
                ],
                "abc": [
                    0.0,
                    0.77372348,
                    0.76630556
                ],
                "xyz": [
                    0.0,
                    5.323892113216038,
                    3.272503564353586
                ],
                "label": "O",
                "properties": {}
            },
            {
                "species": [
                    {
                        "element": "O",
                        "occu": 1
                    }
                ],
                "abc": [
                    0.5,
                    0.27372348,
                    0.23369444
                ],
                "xyz": [
                    3.440435925,
                    1.883456188216038,
                    0.997990785646414
                ],
                "label": "O",
                "properties": {}
            },
            {
                "species": [
                    {
                        "element": "O",
                        "occu": 1
                    }
                ],
                "abc": [
                    0.22627652,
                    0.0,
                    0.23369444
                ],
                "xyz": [
                    1.5569797367839622,
                    0.0,
                    0.997990785646414
                ],
                "label": "O",
                "properties": {}
            },
            {
                "species": [
                    {
                        "element": "O",
                        "occu": 1
                    }
                ],
                "abc": [
                    0.27372348,
                    0.5,
                    0.76630556
                ],
                "xyz": [
                    1.883456188216038,
                    3.440435925,
                    3.272503564353586
                ],
                "label": "O",
                "properties": {}
            },
            {
                "species": [
                    {
                        "element": "O",
                        "occu": 1
                    }
                ],
                "abc": [
                    0.5,
                    0.72627652,
                    0.23369444
                ],
                "xyz": [
                    3.440435925,
                    4.997415661783962,
                    0.997990785646414
                ],
                "label": "O",
                "properties": {}
            },
            {
                "species": [
                    {
                        "element": "O",
                        "occu": 1
                    }
                ],
                "abc": [
                    0.72627652,
                    0.5,
                    0.76630556
                ],
                "xyz": [
                    4.997415661783962,
                    3.440435925,
                    3.272503564353586
                ],
                "label": "O",
                "properties": {}
            }
        ]
    },
    "spacegroup": {
        "source": "spglib",
        "symbol": "P4/nmm",
        "number": 129,
        "point_group": "4/mmm",
        "crystal_system": "tetragonal",
        "hall": "P 4ab 2ab -1ab"
    },
    "dielectric": {
        "epsilon_ionic": [
            [
                5.35371718,
                -8e-08,
                -5e-08
            ],
            [
                -8e-08,
                5.35371211,
                -5e-08
            ],
            [
                -5e-08,
                -5e-08,
                6.15104678
            ]
        ],
        "epsilon_ionic_avg": 5.619492023333333,
        "epsilon_ionic_eig": [
            5.353717181262012,
            5.35371210873798,
            6.151046780000006
        ],
        "epsilon_electronic": [
            [
                8.55564581,
                0.0,
                0.0
            ],
            [
                0.0,
                8.55564581,
                0.0
            ],
            [
                0.0,
                -0.0,
                7.34709527
            ]
        ],
        "epsilon_electronic_avg": 8.15279563,
        "epsilon_electronic_eig": [
            8.55564581,
            8.55564581,
            7.34709527
        ]
    },
    "phonon": {
        "lowest_freq": -0.01106607357410453,
        "frequency": [
            -0.01106607357410453,
            -0.011066073563061765,
            -0.0082419460549289,
            2.8934034590262376,
            2.8934034590262376,
            2.999365341887062,
            2.999365341887062,
            3.3000655610757184,
            3.496526414008643,
            3.721551045491421,
            3.808260391917817,
            4.70747617462367,
            4.70747617462367,
            5.924854789806955,
            6.163466518069008,
            6.778971749008249,
            6.778971749008249,
            6.906502550464767,
            8.117964552056765,
            10.058414995010901,
            10.058414995010901,
            11.084088920415384,
            11.859621835790932,
            11.859621835790932,
            12.126175949045235,
            13.11601966778905,
            13.11601966778905,
            13.430385663033137,
            13.995079690610927,
            14.511336623517568,
            14.511336623517568,
            14.531070786299086,
            15.068750904353667,
            15.068750904353667,
            15.257719002468646,
            15.42413924633808,
            15.76994017764727,
            15.76994017764727,
            15.811269226486546,
            16.046493256848763,
            16.270072881564605,
            16.730245962012486,
            16.88737235634609,
            16.88737235634609,
            17.00328866667783,
            17.00328866667783,
            17.346429127995528,
            17.848742658664925
        ]
    },
    "born_effective_charge": {
        "avg_abs_trace": 1.8050843749999999,
        "tensors": [
            [
                [
                    1.07575,
                    -0.0,
                    -4e-05
                ],
                [
                    -0.0,
                    1.07575,
                    4e-05
                ],
                [
                    0.0,
                    -0.0,
                    1.19354
                ]
            ],
            [
                [
                    1.07575,
                    -0.0,
                    4e-05
                ],
                [
                    -0.0,
                    1.07575,
                    -4e-05
                ],
                [
                    0.0,
                    -0.0,
                    1.19354
                ]
            ],
            [
                [
                    3.60288,
                    -0.0,
                    0.00011
                ],
                [
                    -0.0,
                    3.60288,
                    0.00011
                ],
                [
                    0.0,
                    -0.0,
                    5.23841
                ]
            ],
            [
                [
                    3.60288,
                    -0.0,
                    -0.00011
                ],
                [
                    -0.0,
                    3.60288,
                    -0.00011
                ],
                [
                    0.0,
                    -0.0,
                    5.2384
                ]
            ],
            [
                [
                    1.35269,
                    -0.29457,
                    1.72114
                ],
                [
                    -0.29457,
                    1.35269,
                    -1.72114
                ],
                [
                    1.06845,
                    -1.06845,
                    0.23052
                ]
            ],
            [
                [
                    1.35269,
                    0.29457,
                    -1.72114
                ],
                [
                    0.29457,
                    1.35269,
                    -1.72114
                ],
                [
                    -1.06845,
                    -1.06845,
                    0.23052
                ]
            ],
            [
                [
                    1.35269,
                    -0.29457,
                    -1.72114
                ],
                [
                    -0.29457,
                    1.35269,
                    1.72114
                ],
                [
                    -1.06845,
                    1.06845,
                    0.23052
                ]
            ],
            [
                [
                    1.35269,
                    0.29457,
                    1.72114
                ],
                [
                    0.29457,
                    1.35269,
                    1.72114
                ],
                [
                    1.06845,
                    1.06845,
                    0.23052
                ]
            ],
            [
                [
                    -2.29813,
                    0.00032,
                    -0.00073
                ],
                [
                    -0.0,
                    -1.39358,
                    0.57004
                ],
                [
                    0.0,
                    0.39293,
                    -1.72319
                ]
            ],
            [
                [
                    -1.39418,
                    -0.0,
                    0.56962
                ],
                [
                    -0.00032,
                    -2.29813,
                    0.00073
                ],
                [
                    0.39334,
                    -0.0,
                    -1.7233
                ]
            ],
            [
                [
                    -2.29813,
                    -0.00032,
                    -0.00073
                ],
                [
                    -0.0,
                    -1.39418,
                    -0.56962
                ],
                [
                    0.0,
                    -0.39293,
                    -1.72319
                ]
            ],
            [
                [
                    -2.29813,
                    -0.00032,
                    0.00073
                ],
                [
                    -0.0,
                    -1.39418,
                    0.56962
                ],
                [
                    0.0,
                    0.39334,
                    -1.7233
                ]
            ],
            [
                [
                    -1.39358,
                    -0.0,
                    -0.57004
                ],
                [
                    0.00032,
                    -2.29813,
                    0.00073
                ],
                [
                    -0.39334,
                    -0.0,
                    -1.7233
                ]
            ],
            [
                [
                    -1.39418,
                    -0.0,
                    -0.56962
                ],
                [
                    -0.00032,
                    -2.29813,
                    -0.00073
                ],
                [
                    -0.39293,
                    -0.0,
                    -1.72319
                ]
            ],
            [
                [
                    -2.29813,
                    0.00032,
                    0.00073
                ],
                [
                    -0.0,
                    -1.39358,
                    -0.57004
                ],
                [
                    0.0,
                    -0.39334,
                    -1.7233
                ]
            ],
            [
                [
                    -1.39358,
                    -0.0,
                    0.57004
                ],
                [
                    0.00032,
                    -2.29813,
                    -0.00073
                ],
                [
                    0.39293,
                    -0.0,
                    -1.72319
                ]
            ]
        ]
    },
    "band_gap": 0.7718999999999996,
    "is_direct": false,
    "formula": "LiBi(PdO2)2"
}