{
    "mp_id": "mp-558159",
    "nelements": 3,
    "nsites": 32,
    "elements": [
        "Ba",
        "O",
        "Ti"
    ],
    "structure": {
        "@module": "pymatgen.core.structure",
        "@class": "Structure",
        "charge": null,
        "lattice": {
            "matrix": [
                [
                    10.24678414,
                    0.0,
                    0.0
                ],
                [
                    0.0,
                    3.97216486,
                    0.0
                ],
                [
                    0.0,
                    0.0,
                    11.00575311
                ]
            ],
            "a": 10.24678414,
            "b": 3.97216486,
            "c": 11.00575311,
            "alpha": 90.0,
            "beta": 90.0,
            "gamma": 90.0,
            "volume": 447.9552373773662
        },
        "sites": [
            {
                "species": [
                    {
                        "element": "Ba",
                        "occu": 1
                    }
                ],
                "abc": [
                    0.04731279,
                    0.25,
                    0.16948797
                ],
                "xyz": [
                    0.48480394619115064,
                    0.993041215,
                    1.8653427529350866
                ],
                "label": "Ba",
                "properties": {}
            },
            {
                "species": [
                    {
                        "element": "Ba",
                        "occu": 1
                    }
                ],
                "abc": [
                    0.45268721,
                    0.75,
                    0.66948797
                ],
                "xyz": [
                    4.63858812380885,
                    2.979123645,
                    7.368219307935088
                ],
                "label": "Ba",
                "properties": {}
            },
            {
                "species": [
                    {
                        "element": "Ba",
                        "occu": 1
                    }
                ],
                "abc": [
                    0.54731279,
                    0.25,
                    0.33051203
                ],
                "xyz": [
                    5.608196016191151,
                    0.993041215,
                    3.6375338020649135
                ],
                "label": "Ba",
                "properties": {}
            },
            {
                "species": [
                    {
                        "element": "Ba",
                        "occu": 1
                    }
                ],
                "abc": [
                    0.95268721,
                    0.75,
                    0.83051203
                ],
                "xyz": [
                    9.761980193808851,
                    2.979123645,
                    9.140410357064914
                ],
                "label": "Ba",
                "properties": {}
            },
            {
                "species": [
                    {
                        "element": "Ti",
                        "occu": 1
                    }
                ],
                "abc": [
                    0.2241534,
                    0.75,
                    0.39296745
                ],
                "xyz": [
                    2.2968515040470763,
                    2.979123645,
                    4.32490273496627
                ],
                "label": "Ti",
                "properties": {}
            },
            {
                "species": [
                    {
                        "element": "Ti",
                        "occu": 1
                    }
                ],
                "abc": [
                    0.8576614,
                    0.75,
                    0.41033723
                ],
                "xyz": [
                    8.788271231010198,
                    2.979123645,
                    4.516070245221285
                ],
                "label": "Ti",
                "properties": {}
            },
            {
                "species": [
                    {
                        "element": "Ti",
                        "occu": 1
                    }
                ],
                "abc": [
                    0.1423386,
                    0.25,
                    0.58966277
                ],
                "xyz": [
                    1.4585129089898041,
                    0.993041215,
                    6.4896828647787155
                ],
                "label": "Ti",
                "properties": {}
            },
            {
                "species": [
                    {
                        "element": "Ti",
                        "occu": 1
                    }
                ],
                "abc": [
                    0.3576614,
                    0.75,
                    0.08966277
                ],
                "xyz": [
                    3.6648791610101963,
                    2.979123645,
                    0.9868063097787148
                ],
                "label": "Ti",
                "properties": {}
            },
            {
                "species": [
                    {
                        "element": "Ti",
                        "occu": 1
                    }
                ],
                "abc": [
                    0.7241534,
                    0.75,
                    0.10703255
                ],
                "xyz": [
                    7.420243574047076,
                    2.979123645,
                    1.1779738200337306
                ],
                "label": "Ti",
                "properties": {}
            },
            {
                "species": [
                    {
                        "element": "Ti",
                        "occu": 1
                    }
                ],
                "abc": [
                    0.2758466,
                    0.25,
                    0.89296745
                ],
                "xyz": [
                    2.826540565952924,
                    0.993041215,
                    9.82777928996627
                ],
                "label": "Ti",
                "properties": {}
            },
            {
                "species": [
                    {
                        "element": "Ti",
                        "occu": 1
                    }
                ],
                "abc": [
                    0.7758466,
                    0.25,
                    0.60703255
                ],
                "xyz": [
                    7.949932635952925,
                    0.993041215,
                    6.680850375033731
                ],
                "label": "Ti",
                "properties": {}
            },
            {
                "species": [
                    {
                        "element": "Ti",
                        "occu": 1
                    }
                ],
                "abc": [
                    0.6423386,
                    0.25,
                    0.91033723
                ],
                "xyz": [
                    6.5819049789898045,
                    0.993041215,
                    10.018946800221286
                ],
                "label": "Ti",
                "properties": {}
            },
            {
                "species": [
                    {
                        "element": "O",
                        "occu": 1
                    }
                ],
                "abc": [
                    0.23288573,
                    0.75,
                    0.21401329
                ],
                "xyz": [
                    2.3863298045963224,
                    2.979123645,
                    2.355377431998832
                ],
                "label": "O",
                "properties": {}
            },
            {
                "species": [
                    {
                        "element": "O",
                        "occu": 1
                    }
                ],
                "abc": [
                    0.33631726,
                    0.25,
                    0.06685611
                ],
                "xyz": [
                    3.446170365776257,
                    0.993041215,
                    0.7358018405550021
                ],
                "label": "O",
                "properties": {}
            },
            {
                "species": [
                    {
                        "element": "O",
                        "occu": 1
                    }
                ],
                "abc": [
                    0.30374771,
                    0.75,
                    0.9143967
                ],
                "xyz": [
                    3.1124372173893198,
                    2.979123645,
                    10.063624324798736
                ],
                "label": "O",
                "properties": {}
            },
            {
                "species": [
                    {
                        "element": "O",
                        "occu": 1
                    }
                ],
                "abc": [
                    0.51820146,
                    0.75,
                    0.15697203
                ],
                "xyz": [
                    5.309898501652845,
                    2.979123645,
                    1.7275954073555135
                ],
                "label": "O",
                "properties": {}
            },
            {
                "species": [
                    {
                        "element": "O",
                        "occu": 1
                    }
                ],
                "abc": [
                    0.48179854,
                    0.25,
                    0.84302797
                ],
                "xyz": [
                    4.936885638347156,
                    0.993041215,
                    9.278157702644487
                ],
                "label": "O",
                "properties": {}
            },
            {
                "species": [
                    {
                        "element": "O",
                        "occu": 1
                    }
                ],
                "abc": [
                    0.69625229,
                    0.25,
                    0.0856033
                ],
                "xyz": [
                    7.134346922610681,
                    0.993041215,
                    0.942128785201263
                ],
                "label": "O",
                "properties": {}
            },
            {
                "species": [
                    {
                        "element": "O",
                        "occu": 1
                    }
                ],
                "abc": [
                    0.98179854,
                    0.25,
                    0.65697203
                ],
                "xyz": [
                    10.060277708347156,
                    0.993041215,
                    7.230471962355514
                ],
                "label": "O",
                "properties": {}
            },
            {
                "species": [
                    {
                        "element": "O",
                        "occu": 1
                    }
                ],
                "abc": [
                    0.26711427,
                    0.25,
                    0.71401329
                ],
                "xyz": [
                    2.737062265403678,
                    0.993041215,
                    7.858253986998832
                ],
                "label": "O",
                "properties": {}
            },
            {
                "species": [
                    {
                        "element": "O",
                        "occu": 1
                    }
                ],
                "abc": [
                    0.80374771,
                    0.75,
                    0.5856033
                ],
                "xyz": [
                    8.23582928738932,
                    2.979123645,
                    6.445005340201264
                ],
                "label": "O",
                "properties": {}
            },
            {
                "species": [
                    {
                        "element": "O",
                        "occu": 1
                    }
                ],
                "abc": [
                    0.60181922,
                    0.25,
                    0.57602755
                ],
                "xyz": [
                    6.1667116386431715,
                    0.993041215,
                    6.3396169998581815
                ],
                "label": "O",
                "properties": {}
            },
            {
                "species": [
                    {
                        "element": "O",
                        "occu": 1
                    }
                ],
                "abc": [
                    0.73288573,
                    0.75,
                    0.28598671
                ],
                "xyz": [
                    7.509721874596323,
                    2.979123645,
                    3.147499123001168
                ],
                "label": "O",
                "properties": {}
            },
            {
                "species": [
                    {
                        "element": "O",
                        "occu": 1
                    }
                ],
                "abc": [
                    0.83631726,
                    0.25,
                    0.43314389
                ],
                "xyz": [
                    8.569562435776257,
                    0.993041215,
                    4.767074714444998
                ],
                "label": "O",
                "properties": {}
            },
            {
                "species": [
                    {
                        "element": "O",
                        "occu": 1
                    }
                ],
                "abc": [
                    0.66368274,
                    0.75,
                    0.93314389
                ],
                "xyz": [
                    6.800613774223745,
                    2.979123645,
                    10.269951269444999
                ],
                "label": "O",
                "properties": {}
            },
            {
                "species": [
                    {
                        "element": "O",
                        "occu": 1
                    }
                ],
                "abc": [
                    0.89818078,
                    0.75,
                    0.07602755
                ],
                "xyz": [
                    9.20346457135683,
                    2.979123645,
                    0.8367404448581806
                ],
                "label": "O",
                "properties": {}
            },
            {
                "species": [
                    {
                        "element": "O",
                        "occu": 1
                    }
                ],
                "abc": [
                    0.39818078,
                    0.75,
                    0.42397245
                ],
                "xyz": [
                    4.080072501356829,
                    2.979123645,
                    4.66613611014182
                ],
                "label": "O",
                "properties": {}
            },
            {
                "species": [
                    {
                        "element": "O",
                        "occu": 1
                    }
                ],
                "abc": [
                    0.16368274,
                    0.75,
                    0.56685611
                ],
                "xyz": [
                    1.6772217042237436,
                    2.979123645,
                    6.238678395555002
                ],
                "label": "O",
                "properties": {}
            },
            {
                "species": [
                    {
                        "element": "O",
                        "occu": 1
                    }
                ],
                "abc": [
                    0.19625229,
                    0.25,
                    0.4143967
                ],
                "xyz": [
                    2.0109548526106806,
                    0.993041215,
                    4.560747769798738
                ],
                "label": "O",
                "properties": {}
            },
            {
                "species": [
                    {
                        "element": "O",
                        "occu": 1
                    }
                ],
                "abc": [
                    0.01820146,
                    0.75,
                    0.34302797
                ],
                "xyz": [
                    0.18650643165284442,
                    2.979123645,
                    3.775281147644487
                ],
                "label": "O",
                "properties": {}
            },
            {
                "species": [
                    {
                        "element": "O",
                        "occu": 1
                    }
                ],
                "abc": [
                    0.10181922,
                    0.25,
                    0.92397245
                ],
                "xyz": [
                    1.0433195686431709,
                    0.993041215,
                    10.16901266514182
                ],
                "label": "O",
                "properties": {}
            },
            {
                "species": [
                    {
                        "element": "O",
                        "occu": 1
                    }
                ],
                "abc": [
                    0.76711427,
                    0.25,
                    0.78598671
                ],
                "xyz": [
                    7.860454335403678,
                    0.993041215,
                    8.650375678001168
                ],
                "label": "O",
                "properties": {}
            }
        ]
    },
    "spacegroup": {
        "source": "spglib",
        "symbol": "Pnma",
        "number": 62,
        "point_group": "mmm",
        "crystal_system": "orthorhombic",
        "hall": "-P 2ac 2n"
    },
    "dielectric": {
        "epsilon_ionic": [
            [
                12.86571841,
                4e-08,
                3e-08
            ],
            [
                4e-08,
                15.04536864,
                5e-08
            ],
            [
                3e-08,
                5e-08,
                11.01252628
            ]
        ],
        "epsilon_ionic_avg": 12.974537776666665,
        "epsilon_ionic_eig": [
            12.86571841,
            15.045368640000001,
            11.01252628
        ],
        "epsilon_electronic": [
            [
                4.99607801,
                0.0,
                0.0
            ],
            [
                0.0,
                4.94359116,
                0.0
            ],
            [
                0.0,
                0.0,
                4.87145022
            ]
        ],
        "epsilon_electronic_avg": 4.937039796666666,
        "epsilon_electronic_eig": [
            4.99607801,
            4.94359116,
            4.87145022
        ]
    },
    "phonon": {
        "lowest_freq": -0.06921104070923063,
        "frequency": [
            -0.06921104070923063,
            -0.034904234852422326,
            -0.024300994893436585,
            1.8016685080064425,
            1.976354025550779,
            2.180218649066664,
            2.3421736934972013,
            2.4965567745056885,
            2.621579028078005,
            2.6597542978093203,
            2.815434096730044,
            3.0688011510568898,
            3.207918353375068,
            3.382855281456194,
            3.38971436511337,
            3.45490405940799,
            3.565451748646112,
            3.71500899335616,
            3.742424065096784,
            3.9650815486148154,
            4.357230984499405,
            4.371818588047199,
            4.498839890542661,
            5.152405425262891,
            5.389945859700289,
            5.6135751837948344,
            6.078463056446443,
            6.115477810220171,
            6.178792512414929,
            6.276405257952117,
            6.331873305690782,
            6.536905671718811,
            6.758462077170363,
            7.077582786888525,
            7.35612137283988,
            7.529977922653022,
            7.720349486131952,
            7.777416752547173,
            7.807279799614467,
            8.035059636737639,
            8.077742755507677,
            8.163346991190377,
            8.353690536306527,
            8.381621890310809,
            8.424746037256458,
            8.56115097186036,
            8.561199274227317,
            8.574976505716174,
            8.575667697477494,
            8.643323250486599,
            8.753036815182355,
            8.785789154540103,
            8.909278015701888,
            8.944471362073196,
            9.020911509631956,
            9.724510178377697,
            9.870140108055343,
            9.985832674200381,
            9.987611984525559,
            11.12499206981145,
            11.186774903833133,
            11.250740227078593,
            11.82074639879123,
            11.961867961890942,
            13.364760165727768,
            13.633708508371535,
            13.728363202143063,
            13.77274054780039,
            13.786726899358655,
            13.898347982017054,
            13.955942290003305,
            14.076430831604835,
            14.803690161322782,
            14.883665460173841,
            14.919718037998075,
            14.951040061362937,
            15.119344340742986,
            15.13925464165001,
            17.481155779860416,
            17.674981028220994,
            17.72740057035699,
            17.76439312647372,
            17.818390340799606,
            19.011760118614717,
            19.940359923186648,
            20.014026758575078,
            20.454360761442448,
            20.939917804694993,
            21.29505643958377,
            21.763324211787754,
            22.683947437057448,
            23.796490726458313,
            24.08083192838047,
            25.804071181904675,
            25.946269091295253,
            26.145958262561138
        ]
    },
    "born_effective_charge": {
        "avg_abs_trace": 3.239272708333333,
        "tensors": [
            [
                [
                    2.90278,
                    0.0,
                    -0.12961
                ],
                [
                    5e-05,
                    2.76879,
                    -0.00017
                ],
                [
                    0.25013,
                    -0.0,
                    2.85432
                ]
            ],
            [
                [
                    2.90269,
                    -0.0,
                    0.12951
                ],
                [
                    -5e-05,
                    2.76879,
                    -0.00017
                ],
                [
                    -0.25013,
                    -0.0,
                    2.85432
                ]
            ],
            [
                [
                    2.90278,
                    0.0,
                    0.12961
                ],
                [
                    5e-05,
                    2.76879,
                    0.00017
                ],
                [
                    -0.2503,
                    -0.0,
                    2.85453
                ]
            ],
            [
                [
                    2.90269,
                    -0.0,
                    -0.12951
                ],
                [
                    -5e-05,
                    2.76879,
                    0.00017
                ],
                [
                    0.2503,
                    -0.0,
                    2.85453
                ]
            ],
            [
                [
                    5.35276,
                    0.0,
                    -0.29919
                ],
                [
                    -0.00148,
                    5.32302,
                    0.00017
                ],
                [
                    -0.31554,
                    -0.0,
                    5.43308
                ]
            ],
            [
                [
                    4.43518,
                    -0.0,
                    -0.04381
                ],
                [
                    -0.00087,
                    5.39781,
                    0.00099
                ],
                [
                    0.58202,
                    -0.0,
                    4.40372
                ]
            ],
            [
                [
                    4.43529,
                    -0.0,
                    -0.04394
                ],
                [
                    0.00087,
                    5.39781,
                    -0.00099
                ],
                [
                    0.58201,
                    0.0,
                    4.40348
                ]
            ],
            [
                [
                    4.43518,
                    -0.0,
                    0.04381
                ],
                [
                    -0.00087,
                    5.39781,
                    -0.00099
                ],
                [
                    -0.58201,
                    -0.0,
                    4.40348
                ]
            ],
            [
                [
                    5.35276,
                    0.0,
                    0.29919
                ],
                [
                    -0.00148,
                    5.32302,
                    -0.00017
                ],
                [
                    0.31551,
                    -0.0,
                    5.43308
                ]
            ],
            [
                [
                    5.35241,
                    -0.0,
                    0.29922
                ],
                [
                    0.00148,
                    5.32302,
                    0.00017
                ],
                [
                    0.31554,
                    -0.0,
                    5.43308
                ]
            ],
            [
                [
                    5.35241,
                    -0.0,
                    -0.29922
                ],
                [
                    0.00148,
                    5.32302,
                    -0.00017
                ],
                [
                    -0.31551,
                    -0.0,
                    5.43308
                ]
            ],
            [
                [
                    4.43529,
                    -0.0,
                    0.04394
                ],
                [
                    0.00087,
                    5.39781,
                    0.00099
                ],
                [
                    -0.58202,
                    -0.0,
                    4.40372
                ]
            ],
            [
                [
                    -2.4039,
                    -0.0,
                    1.52564
                ],
                [
                    -0.00015,
                    -1.50211,
                    0.0001
                ],
                [
                    1.38947,
                    -0.0,
                    -4.40459
                ]
            ],
            [
                [
                    -1.28109,
                    -0.0,
                    -0.35008
                ],
                [
                    0.00141,
                    -4.4725,
                    0.00137
                ],
                [
                    -0.36504,
                    -0.0,
                    -2.45676
                ]
            ],
            [
                [
                    -1.11614,
                    0.0,
                    -0.41338
                ],
                [
                    -0.0016,
                    -4.46197,
                    -0.00102
                ],
                [
                    -0.48026,
                    -0.0,
                    -2.53688
                ]
            ],
            [
                [
                    -4.21398,
                    -0.0,
                    -0.70767
                ],
                [
                    0.0004,
                    -1.48844,
                    -0.00011
                ],
                [
                    -0.41217,
                    -0.0,
                    -1.60045
                ]
            ],
            [
                [
                    -4.21369,
                    -0.0,
                    -0.70862
                ],
                [
                    -0.0004,
                    -1.48844,
                    0.00011
                ],
                [
                    -0.41235,
                    -0.0,
                    -1.60078
                ]
            ],
            [
                [
                    -1.11599,
                    -0.0,
                    -0.4132
                ],
                [
                    0.0016,
                    -4.46197,
                    0.00102
                ],
                [
                    -0.48023,
                    -0.0,
                    -2.53683
                ]
            ],
            [
                [
                    -4.21369,
                    0.0,
                    0.70862
                ],
                [
                    -0.0004,
                    -1.48844,
                    -0.00011
                ],
                [
                    0.41217,
                    -0.0,
                    -1.60045
                ]
            ],
            [
                [
                    -2.40396,
                    -0.0,
                    -1.52569
                ],
                [
                    0.00015,
                    -1.50211,
                    0.0001
                ],
                [
                    -1.38947,
                    -0.0,
                    -4.40459
                ]
            ],
            [
                [
                    -1.11614,
                    0.0,
                    0.41338
                ],
                [
                    -0.0016,
                    -4.46197,
                    0.00102
                ],
                [
                    0.48023,
                    0.0,
                    -2.53683
                ]
            ],
            [
                [
                    -3.67577,
                    -0.0,
                    -0.36906
                ],
                [
                    -0.00037,
                    -1.56459,
                    -0.00043
                ],
                [
                    0.04407,
                    -0.0,
                    -1.69217
                ]
            ],
            [
                [
                    -2.4039,
                    -0.0,
                    -1.52564
                ],
                [
                    -0.00015,
                    -1.50211,
                    -0.0001
                ],
                [
                    -1.38935,
                    -0.0,
                    -4.40457
                ]
            ],
            [
                [
                    -1.28109,
                    -0.0,
                    0.35008
                ],
                [
                    0.00141,
                    -4.4725,
                    -0.00137
                ],
                [
                    0.36492,
                    0.0,
                    -2.45695
                ]
            ],
            [
                [
                    -1.28095,
                    -0.0,
                    -0.3501
                ],
                [
                    -0.00141,
                    -4.4725,
                    -0.00137
                ],
                [
                    -0.36492,
                    -0.0,
                    -2.45695
                ]
            ],
            [
                [
                    -3.67564,
                    -0.0,
                    0.36872
                ],
                [
                    0.00037,
                    -1.56459,
                    -0.00043
                ],
                [
                    -0.04407,
                    0.0,
                    -1.69217
                ]
            ],
            [
                [
                    -3.67564,
                    -0.0,
                    -0.36872
                ],
                [
                    0.00037,
                    -1.56459,
                    0.00043
                ],
                [
                    0.044,
                    0.0,
                    -1.69222
                ]
            ],
            [
                [
                    -1.28095,
                    -0.0,
                    0.3501
                ],
                [
                    -0.00141,
                    -4.4725,
                    0.00137
                ],
                [
                    0.36504,
                    -0.0,
                    -2.45676
                ]
            ],
            [
                [
                    -1.11599,
                    -0.0,
                    0.4132
                ],
                [
                    0.0016,
                    -4.46197,
                    -0.00102
                ],
                [
                    0.48026,
                    0.0,
                    -2.53688
                ]
            ],
            [
                [
                    -4.21398,
                    -0.0,
                    0.70767
                ],
                [
                    0.0004,
                    -1.48844,
                    0.00011
                ],
                [
                    0.41235,
                    -0.0,
                    -1.60078
                ]
            ],
            [
                [
                    -3.67577,
                    -0.0,
                    0.36906
                ],
                [
                    -0.00037,
                    -1.56459,
                    0.00043
                ],
                [
                    -0.044,
                    -0.0,
                    -1.69222
                ]
            ],
            [
                [
                    -2.40396,
                    -0.0,
                    1.52569
                ],
                [
                    0.00015,
                    -1.50211,
                    -0.0001
                ],
                [
                    1.38935,
                    -0.0,
                    -4.40457
                ]
            ]
        ]
    },
    "band_gap": 2.9038,
    "is_direct": false,
    "formula": "BaTi2O5"
}