{
    "mp_id": "mp-560297",
    "nelements": 4,
    "nsites": 32,
    "elements": [
        "Li",
        "O",
        "Si",
        "Ta"
    ],
    "structure": {
        "@module": "pymatgen.core.structure",
        "@class": "Structure",
        "charge": null,
        "lattice": {
            "matrix": [
                [
                    7.45922074,
                    0.0,
                    0.00015036
                ],
                [
                    0.0,
                    7.95445617,
                    0.0
                ],
                [
                    -3.65456453,
                    0.0,
                    6.51018039
                ]
            ],
            "a": 7.459220741515448,
            "b": 7.95445617,
            "c": 7.465808101891896,
            "alpha": 90.0,
            "beta": 119.30702131062701,
            "gamma": 90.0,
            "volume": 386.279703540348
        },
        "sites": [
            {
                "species": [
                    {
                        "element": "Li",
                        "occu": 1
                    }
                ],
                "abc": [
                    0.74901079,
                    0.56724864,
                    0.29958637
                ],
                "xyz": [
                    4.492179097778329,
                    4.512154444372109,
                    1.9504739323476687
                ],
                "label": "Li",
                "properties": {}
            },
            {
                "species": [
                    {
                        "element": "Li",
                        "occu": 1
                    }
                ],
                "abc": [
                    0.25098921,
                    0.43275136,
                    0.70041363
                ],
                "xyz": [
                    -0.6875228877783282,
                    3.442301725627891,
                    4.5598568176523315
                ],
                "label": "Li",
                "properties": {}
            },
            {
                "species": [
                    {
                        "element": "Li",
                        "occu": 1
                    }
                ],
                "abc": [
                    0.74901079,
                    0.93275136,
                    0.79958637
                ],
                "xyz": [
                    2.6648968327783287,
                    7.419529810627892,
                    5.205564127347669
                ],
                "label": "Li",
                "properties": {}
            },
            {
                "species": [
                    {
                        "element": "Li",
                        "occu": 1
                    }
                ],
                "abc": [
                    0.25098921,
                    0.06724864,
                    0.20041363
                ],
                "xyz": [
                    1.1397593772216716,
                    0.5349263593721088,
                    1.3047666226523313
                ],
                "label": "Li",
                "properties": {}
            },
            {
                "species": [
                    {
                        "element": "Ta",
                        "occu": 1
                    }
                ],
                "abc": [
                    0.74908046,
                    0.25605724,
                    0.00074404
                ],
                "xyz": [
                    5.584837360967839,
                    2.036796092591171,
                    0.0049564663553412006
                ],
                "label": "Ta",
                "properties": {}
            },
            {
                "species": [
                    {
                        "element": "Ta",
                        "occu": 1
                    }
                ],
                "abc": [
                    0.74908046,
                    0.24394276,
                    0.50074404
                ],
                "xyz": [
                    3.757555095967839,
                    1.9404319924088294,
                    3.260046661355341
                ],
                "label": "Ta",
                "properties": {}
            },
            {
                "species": [
                    {
                        "element": "Ta",
                        "occu": 1
                    }
                ],
                "abc": [
                    0.25091954,
                    0.74394276,
                    0.99925596
                ],
                "xyz": [
                    -1.7801811509678396,
                    5.917660077408829,
                    6.5053742836446595
                ],
                "label": "Ta",
                "properties": {}
            },
            {
                "species": [
                    {
                        "element": "Ta",
                        "occu": 1
                    }
                ],
                "abc": [
                    0.25091954,
                    0.75605724,
                    0.49925596
                ],
                "xyz": [
                    0.04710111403216066,
                    6.014024177591171,
                    3.250284088644659
                ],
                "label": "Ta",
                "properties": {}
            },
            {
                "species": [
                    {
                        "element": "Si",
                        "occu": 1
                    }
                ],
                "abc": [
                    0.25064961,
                    0.39093199,
                    0.25859023
                ],
                "xyz": [
                    0.9246160870223697,
                    3.1096513799058783,
                    1.6835067320669492
                ],
                "label": "Si",
                "properties": {}
            },
            {
                "species": [
                    {
                        "element": "Si",
                        "occu": 1
                    }
                ],
                "abc": [
                    0.25064961,
                    0.10906801,
                    0.75859023
                ],
                "xyz": [
                    -0.9026661779776306,
                    0.8675767050941218,
                    4.938596927066949
                ],
                "label": "Si",
                "properties": {}
            },
            {
                "species": [
                    {
                        "element": "Si",
                        "occu": 1
                    }
                ],
                "abc": [
                    0.74935039,
                    0.89093199,
                    0.24140977
                ],
                "xyz": [
                    4.707322387977631,
                    7.086879464905879,
                    1.5717338229330506
                ],
                "label": "Si",
                "properties": {}
            },
            {
                "species": [
                    {
                        "element": "Si",
                        "occu": 1
                    }
                ],
                "abc": [
                    0.74935039,
                    0.60906801,
                    0.74140977
                ],
                "xyz": [
                    2.880040122977631,
                    4.844804790094122,
                    4.826824017933051
                ],
                "label": "Si",
                "properties": {}
            },
            {
                "species": [
                    {
                        "element": "O",
                        "occu": 1
                    }
                ],
                "abc": [
                    0.44244956,
                    0.24201999,
                    0.85426189
                ],
                "xyz": [
                    0.17837373183111316,
                    1.9251374027188384,
                    5.561465530918179
                ],
                "label": "O",
                "properties": {}
            },
            {
                "species": [
                    {
                        "element": "O",
                        "occu": 1
                    }
                ],
                "abc": [
                    0.24892143,
                    0.6721786,
                    0.74900788
                ],
                "xyz": [
                    -0.8805377376520382,
                    5.346815212111962,
                    4.876213840157688
                ],
                "label": "O",
                "properties": {}
            },
            {
                "species": [
                    {
                        "element": "O",
                        "occu": 1
                    }
                ],
                "abc": [
                    0.94374416,
                    0.7386278,
                    0.85232519
                ],
                "xyz": [
                    3.924718604126369,
                    5.875382461043526,
                    5.5489326392129215
                ],
                "label": "O",
                "properties": {}
            },
            {
                "species": [
                    {
                        "element": "O",
                        "occu": 1
                    }
                ],
                "abc": [
                    0.75107857,
                    0.3278214,
                    0.25099212
                ],
                "xyz": [
                    4.685193947652039,
                    2.607640957888038,
                    1.634116909842312
                ],
                "label": "O",
                "properties": {}
            },
            {
                "species": [
                    {
                        "element": "O",
                        "occu": 1
                    }
                ],
                "abc": [
                    0.7347286,
                    0.48765433,
                    0.90991944
                ],
                "xyz": [
                    2.1551435008097,
                    3.879024994095716,
                    5.923850168560079
                ],
                "label": "O",
                "properties": {}
            },
            {
                "species": [
                    {
                        "element": "O",
                        "occu": 1
                    }
                ],
                "abc": [
                    0.75926879,
                    0.00762457,
                    0.06600584
                ],
                "xyz": [
                    5.422330903965849,
                    0.0606493078800969,
                    0.429824088848742
                ],
                "label": "O",
                "properties": {}
            },
            {
                "species": [
                    {
                        "element": "O",
                        "occu": 1
                    }
                ],
                "abc": [
                    0.2652714,
                    0.51234567,
                    0.09008056
                ],
                "xyz": [
                    1.649512709190299,
                    4.075431175904284,
                    0.5864805814399224
                ],
                "label": "O",
                "properties": {}
            },
            {
                "species": [
                    {
                        "element": "O",
                        "occu": 1
                    }
                ],
                "abc": [
                    0.94374416,
                    0.7613722,
                    0.35232519
                ],
                "xyz": [
                    5.752000869126369,
                    6.056301793956474,
                    2.293842444212922
                ],
                "label": "O",
                "properties": {}
            },
            {
                "species": [
                    {
                        "element": "O",
                        "occu": 1
                    }
                ],
                "abc": [
                    0.44244956,
                    0.25798001,
                    0.35426189
                ],
                "xyz": [
                    2.0056559968311127,
                    2.0520906822811615,
                    2.306375335918179
                ],
                "label": "O",
                "properties": {}
            },
            {
                "species": [
                    {
                        "element": "O",
                        "occu": 1
                    }
                ],
                "abc": [
                    0.7347286,
                    0.01234567,
                    0.40991944
                ],
                "xyz": [
                    3.9824257658097,
                    0.0982030909042839,
                    2.668759973560078
                ],
                "label": "O",
                "properties": {}
            },
            {
                "species": [
                    {
                        "element": "O",
                        "occu": 1
                    }
                ],
                "abc": [
                    0.05625584,
                    0.2386278,
                    0.64767481
                ],
                "xyz": [
                    -1.947344659126368,
                    1.898154376043526,
                    4.216488305787079
                ],
                "label": "O",
                "properties": {}
            },
            {
                "species": [
                    {
                        "element": "O",
                        "occu": 1
                    }
                ],
                "abc": [
                    0.24073121,
                    0.50762457,
                    0.43399416
                ],
                "xyz": [
                    0.2096075710341505,
                    4.037877392880097,
                    2.825416466151258
                ],
                "label": "O",
                "properties": {}
            },
            {
                "species": [
                    {
                        "element": "O",
                        "occu": 1
                    }
                ],
                "abc": [
                    0.75107857,
                    0.1721786,
                    0.75099212
                ],
                "xyz": [
                    2.857911682652038,
                    1.369587127111962,
                    4.8892071048423125
                ],
                "label": "O",
                "properties": {}
            },
            {
                "species": [
                    {
                        "element": "O",
                        "occu": 1
                    }
                ],
                "abc": [
                    0.75926879,
                    0.49237543,
                    0.56600584
                ],
                "xyz": [
                    3.59504863896585,
                    3.9165787771199034,
                    3.6849142838487423
                ],
                "label": "O",
                "properties": {}
            },
            {
                "species": [
                    {
                        "element": "O",
                        "occu": 1
                    }
                ],
                "abc": [
                    0.24892143,
                    0.8278214,
                    0.24900788
                ],
                "xyz": [
                    0.9467445273479618,
                    6.584869042888038,
                    1.621123645157688
                ],
                "label": "O",
                "properties": {}
            },
            {
                "species": [
                    {
                        "element": "O",
                        "occu": 1
                    }
                ],
                "abc": [
                    0.2652714,
                    0.98765433,
                    0.59008056
                ],
                "xyz": [
                    -0.17776955580970077,
                    7.856253079095716,
                    3.841570776439922
                ],
                "label": "O",
                "properties": {}
            },
            {
                "species": [
                    {
                        "element": "O",
                        "occu": 1
                    }
                ],
                "abc": [
                    0.05625584,
                    0.2613722,
                    0.14767481
                ],
                "xyz": [
                    -0.1200623941263676,
                    2.079073708956474,
                    0.9613981107870783
                ],
                "label": "O",
                "properties": {}
            },
            {
                "species": [
                    {
                        "element": "O",
                        "occu": 1
                    }
                ],
                "abc": [
                    0.24073121,
                    0.99237543,
                    0.93399416
                ],
                "xyz": [
                    -1.6176746939658495,
                    7.893806862119903,
                    6.080506661151259
                ],
                "label": "O",
                "properties": {}
            },
            {
                "species": [
                    {
                        "element": "O",
                        "occu": 1
                    }
                ],
                "abc": [
                    0.55755044,
                    0.75798001,
                    0.14573811
                ],
                "xyz": [
                    3.626282478168887,
                    6.029318767281162,
                    0.9488652190818214
                ],
                "label": "O",
                "properties": {}
            },
            {
                "species": [
                    {
                        "element": "O",
                        "occu": 1
                    }
                ],
                "abc": [
                    0.55755044,
                    0.74201999,
                    0.64573811
                ],
                "xyz": [
                    1.799000213168887,
                    5.902365487718838,
                    4.203955414081822
                ],
                "label": "O",
                "properties": {}
            }
        ]
    },
    "spacegroup": {
        "source": "spglib",
        "symbol": "P2_1/c",
        "number": 14,
        "point_group": "2/m",
        "crystal_system": "monoclinic",
        "hall": "-P 2ybc"
    },
    "dielectric": {
        "epsilon_ionic": [
            [
                10.24817549,
                -0.0,
                -3.33215079
            ],
            [
                -0.0,
                5.0389781,
                1e-08
            ],
            [
                -3.33215079,
                1e-08,
                14.31452977
            ]
        ],
        "epsilon_ionic_avg": 9.867227786666666,
        "epsilon_ionic_eig": [
            16.184817522876095,
            8.377887737123903,
            5.0389781
        ],
        "epsilon_electronic": [
            [
                3.56259823,
                0.0,
                -0.20146726
            ],
            [
                0.0,
                3.37251021,
                0.0
            ],
            [
                -0.20146802,
                0.0,
                3.82789667
            ]
        ],
        "epsilon_electronic_avg": 3.58766837,
        "epsilon_electronic_eig": [
            3.4540317259403244,
            3.9364631740596754,
            3.37251021
        ]
    },
    "phonon": {
        "lowest_freq": -0.08661107479386736,
        "frequency": [
            -0.08661107479386736,
            -0.06715295692387223,
            -0.04911893481650305,
            2.1510824229203194,
            2.17724832505116,
            2.509820014813106,
            3.2340693765889417,
            3.3427838133197247,
            3.722207443986125,
            4.153735806706003,
            4.294436365850636,
            4.620769240275308,
            4.684935270396291,
            4.804224637189511,
            5.120133930124571,
            5.158047904465621,
            5.654828158670025,
            5.8967355617109725,
            5.979784444704904,
            6.003557761555021,
            6.633275990689239,
            6.824777783293358,
            6.878450514587952,
            7.059770357245854,
            7.061944319743384,
            7.079716327163342,
            7.203183051053465,
            7.415670291468579,
            7.4225356524942905,
            7.836573158561873,
            7.954212735123807,
            7.9958514699273415,
            8.040544180174706,
            8.409317426105627,
            8.677994514341533,
            8.730288567147781,
            8.769677983161138,
            9.02613663697365,
            9.200655340301418,
            9.254659603797531,
            9.279925209697426,
            9.57551484528352,
            9.748671052054798,
            10.22722108340564,
            10.397257180826722,
            10.482257064382962,
            10.500245657182186,
            10.803581219954216,
            10.970611071561503,
            11.017381833542615,
            11.295893026770619,
            11.637087326983067,
            11.924892614928298,
            12.367955202416429,
            12.747061486261133,
            12.772895753502679,
            13.074192421773382,
            13.466914819488267,
            13.76764359824664,
            13.849587232248934,
            13.964290471958835,
            14.364551813983544,
            14.42330562316925,
            15.431659359783797,
            15.484662031932299,
            15.495086831277593,
            15.876967775615768,
            16.232392247381444,
            16.69908077186295,
            16.80229087989279,
            17.249072959131006,
            17.273205737483234,
            17.444097781191626,
            17.547718477270646,
            18.117947303760385,
            18.305952074016677,
            18.372867425527417,
            18.725621015955124,
            22.273467897741416,
            22.279634580563886,
            25.88121145187707,
            25.94050434685221,
            26.597784918718997,
            26.62276440246798,
            26.639269499782436,
            26.71210522979473,
            27.107638031719173,
            27.534129392415526,
            27.76668216243672,
            28.296928763019583,
            28.551601402174406,
            28.608798457375507,
            29.318085662618866,
            30.829068188431723,
            30.84768407424431,
            32.074680975447464
        ]
    },
    "born_effective_charge": {
        "avg_abs_trace": 2.881588541666667,
        "tensors": [
            [
                [
                    1.04886,
                    0.00577,
                    0.03113
                ],
                [
                    0.04898,
                    1.28645,
                    -0.09944
                ],
                [
                    0.03581,
                    -0.00103,
                    0.99381
                ]
            ],
            [
                [
                    1.04884,
                    0.00584,
                    0.03116
                ],
                [
                    0.04898,
                    1.28644,
                    -0.09944
                ],
                [
                    0.03586,
                    -0.00115,
                    0.99375
                ]
            ],
            [
                [
                    1.04886,
                    -0.00577,
                    0.03113
                ],
                [
                    -0.04898,
                    1.28644,
                    0.09944
                ],
                [
                    0.03581,
                    0.00103,
                    0.99381
                ]
            ],
            [
                [
                    1.04884,
                    -0.00584,
                    0.03116
                ],
                [
                    -0.04898,
                    1.28645,
                    0.09944
                ],
                [
                    0.03586,
                    0.00115,
                    0.99375
                ]
            ],
            [
                [
                    6.56074,
                    0.03213,
                    -0.94807
                ],
                [
                    1.09978,
                    5.46678,
                    0.13871
                ],
                [
                    -0.81946,
                    0.13122,
                    7.71656
                ]
            ],
            [
                [
                    6.56074,
                    -0.03213,
                    -0.94807
                ],
                [
                    -1.0998,
                    5.46679,
                    -0.13871
                ],
                [
                    -0.81946,
                    -0.13122,
                    7.71656
                ]
            ],
            [
                [
                    6.56078,
                    0.03211,
                    -0.94799
                ],
                [
                    1.0998,
                    5.46679,
                    0.13871
                ],
                [
                    -0.81955,
                    0.13131,
                    7.71652
                ]
            ],
            [
                [
                    6.56078,
                    -0.03211,
                    -0.94799
                ],
                [
                    -1.09978,
                    5.46678,
                    -0.13871
                ],
                [
                    -0.81955,
                    -0.13131,
                    7.71652
                ]
            ],
            [
                [
                    3.90056,
                    0.00466,
                    0.48126
                ],
                [
                    0.0409,
                    4.08213,
                    -0.05286
                ],
                [
                    0.30157,
                    -0.01931,
                    3.52315
                ]
            ],
            [
                [
                    3.90056,
                    -0.00466,
                    0.48126
                ],
                [
                    -0.04087,
                    4.08222,
                    0.05287
                ],
                [
                    0.30157,
                    0.01931,
                    3.52315
                ]
            ],
            [
                [
                    3.9006,
                    -0.00468,
                    0.48128
                ],
                [
                    -0.0409,
                    4.08213,
                    0.05286
                ],
                [
                    0.30154,
                    0.01937,
                    3.52314
                ]
            ],
            [
                [
                    3.9006,
                    0.00468,
                    0.48128
                ],
                [
                    0.04087,
                    4.08222,
                    -0.05287
                ],
                [
                    0.30154,
                    -0.01937,
                    3.52314
                ]
            ],
            [
                [
                    -3.22522,
                    -0.53412,
                    -1.14717
                ],
                [
                    -0.77852,
                    -1.72684,
                    -0.35699
                ],
                [
                    -1.14443,
                    -0.28845,
                    -1.85515
                ]
            ],
            [
                [
                    -2.18312,
                    0.00275,
                    2.02423
                ],
                [
                    -0.03672,
                    -1.29179,
                    0.0367
                ],
                [
                    2.0151,
                    -0.01585,
                    -4.67096
                ]
            ],
            [
                [
                    -3.22963,
                    -0.4387,
                    -1.19036
                ],
                [
                    -0.66966,
                    -1.67771,
                    -0.41096
                ],
                [
                    -1.15117,
                    -0.31577,
                    -1.88686
                ]
            ],
            [
                [
                    -2.18309,
                    0.00282,
                    2.02434
                ],
                [
                    -0.03672,
                    -1.2918,
                    0.03672
                ],
                [
                    2.01498,
                    -0.01593,
                    -4.67106
                ]
            ],
            [
                [
                    -1.41461,
                    -0.59861,
                    0.36867
                ],
                [
                    -0.54554,
                    -3.14913,
                    0.97053
                ],
                [
                    0.37046,
                    1.11474,
                    -1.89273
                ]
            ],
            [
                [
                    -1.45756,
                    -0.52483,
                    0.3802
                ],
                [
                    -0.36558,
                    -2.98999,
                    0.58714
                ],
                [
                    0.39192,
                    0.94921,
                    -1.92779
                ]
            ],
            [
                [
                    -1.41459,
                    -0.59839,
                    0.36869
                ],
                [
                    -0.54539,
                    -3.14936,
                    0.97045
                ],
                [
                    0.37055,
                    1.11434,
                    -1.89274
                ]
            ],
            [
                [
                    -3.22963,
                    0.4387,
                    -1.19036
                ],
                [
                    0.66965,
                    -1.67762,
                    0.41103
                ],
                [
                    -1.15117,
                    0.31577,
                    -1.88686
                ]
            ],
            [
                [
                    -3.22522,
                    0.53412,
                    -1.14717
                ],
                [
                    0.77857,
                    -1.7268,
                    0.35704
                ],
                [
                    -1.14443,
                    0.28845,
                    -1.85515
                ]
            ],
            [
                [
                    -1.41461,
                    0.59861,
                    0.36867
                ],
                [
                    0.54539,
                    -3.14936,
                    -0.97045
                ],
                [
                    0.37046,
                    -1.11474,
                    -1.89273
                ]
            ],
            [
                [
                    -3.22967,
                    0.43869,
                    -1.19039
                ],
                [
                    0.66966,
                    -1.67771,
                    0.41096
                ],
                [
                    -1.1509,
                    0.31572,
                    -1.88674
                ]
            ],
            [
                [
                    -1.45753,
                    0.52507,
                    0.38024
                ],
                [
                    0.36558,
                    -2.98999,
                    -0.58714
                ],
                [
                    0.39184,
                    -0.94958,
                    -1.92782
                ]
            ],
            [
                [
                    -2.18309,
                    -0.00282,
                    2.02434
                ],
                [
                    0.03672,
                    -1.29179,
                    -0.0367
                ],
                [
                    2.01498,
                    0.01593,
                    -4.67106
                ]
            ],
            [
                [
                    -1.45756,
                    0.52483,
                    0.3802
                ],
                [
                    0.36574,
                    -2.98977,
                    -0.58725
                ],
                [
                    0.39192,
                    -0.94921,
                    -1.92779
                ]
            ],
            [
                [
                    -2.18312,
                    -0.00275,
                    2.02423
                ],
                [
                    0.03672,
                    -1.2918,
                    -0.03672
                ],
                [
                    2.0151,
                    0.01585,
                    -4.67096
                ]
            ],
            [
                [
                    -1.41459,
                    0.59839,
                    0.36869
                ],
                [
                    0.54554,
                    -3.14913,
                    -0.97053
                ],
                [
                    0.37055,
                    -1.11434,
                    -1.89274
                ]
            ],
            [
                [
                    -3.22967,
                    -0.43869,
                    -1.19039
                ],
                [
                    -0.66965,
                    -1.67762,
                    -0.41103
                ],
                [
                    -1.1509,
                    -0.31572,
                    -1.88674
                ]
            ],
            [
                [
                    -1.45753,
                    -0.52507,
                    0.38024
                ],
                [
                    -0.36574,
                    -2.98977,
                    0.58725
                ],
                [
                    0.39184,
                    0.94958,
                    -1.92782
                ]
            ],
            [
                [
                    -3.22537,
                    -0.53413,
                    -1.14724
                ],
                [
                    -0.77857,
                    -1.7268,
                    -0.35704
                ],
                [
                    -1.14413,
                    -0.28841,
                    -1.85508
                ]
            ],
            [
                [
                    -3.22537,
                    0.53413,
                    -1.14724
                ],
                [
                    0.77852,
                    -1.72684,
                    0.35699
                ],
                [
                    -1.14413,
                    0.28841,
                    -1.85508
                ]
            ]
        ]
    },
    "band_gap": 4.1114999999999995,
    "is_direct": true,
    "formula": "LiTaSiO5"
}