{
    "mp_id": "mp-559969",
    "nelements": 4,
    "nsites": 28,
    "elements": [
        "Ca",
        "Ga",
        "La",
        "O"
    ],
    "structure": {
        "@module": "pymatgen.core.structure",
        "@class": "Structure",
        "charge": null,
        "lattice": {
            "matrix": [
                [
                    11.7419384,
                    0.0,
                    0.0
                ],
                [
                    0.0,
                    6.81820574,
                    0.0
                ],
                [
                    0.0,
                    0.0,
                    5.31943513
                ]
            ],
            "a": 11.7419384,
            "b": 6.81820574,
            "c": 5.31943513,
            "alpha": 90.0,
            "beta": 90.0,
            "gamma": 90.0,
            "volume": 425.86840066316415
        },
        "sites": [
            {
                "species": [
                    {
                        "element": "Ca",
                        "occu": 1
                    }
                ],
                "abc": [
                    0.5,
                    0.0,
                    0.5
                ],
                "xyz": [
                    5.8709692,
                    0.0,
                    2.659717565
                ],
                "label": "Ca",
                "properties": {}
            },
            {
                "species": [
                    {
                        "element": "Ca",
                        "occu": 1
                    }
                ],
                "abc": [
                    0.0,
                    0.0,
                    0.0
                ],
                "xyz": [
                    0.0,
                    0.0,
                    0.0
                ],
                "label": "Ca",
                "properties": {}
            },
            {
                "species": [
                    {
                        "element": "Ca",
                        "occu": 1
                    }
                ],
                "abc": [
                    0.5,
                    0.5,
                    0.5
                ],
                "xyz": [
                    5.8709692,
                    3.40910287,
                    2.659717565
                ],
                "label": "Ca",
                "properties": {}
            },
            {
                "species": [
                    {
                        "element": "Ca",
                        "occu": 1
                    }
                ],
                "abc": [
                    0.0,
                    0.5,
                    0.0
                ],
                "xyz": [
                    0.0,
                    3.40910287,
                    0.0
                ],
                "label": "Ca",
                "properties": {}
            },
            {
                "species": [
                    {
                        "element": "La",
                        "occu": 1
                    }
                ],
                "abc": [
                    0.7205579,
                    0.25,
                    0.01136474
                ],
                "xyz": [
                    8.46074647543336,
                    1.704551435,
                    0.0604539971993162
                ],
                "label": "La",
                "properties": {}
            },
            {
                "species": [
                    {
                        "element": "La",
                        "occu": 1
                    }
                ],
                "abc": [
                    0.2205579,
                    0.25,
                    0.48863526
                ],
                "xyz": [
                    2.58977727543336,
                    1.704551435,
                    2.5992635678006835
                ],
                "label": "La",
                "properties": {}
            },
            {
                "species": [
                    {
                        "element": "La",
                        "occu": 1
                    }
                ],
                "abc": [
                    0.7794421,
                    0.75,
                    0.51136474
                ],
                "xyz": [
                    9.152161124566641,
                    5.113654305,
                    2.720171562199316
                ],
                "label": "La",
                "properties": {}
            },
            {
                "species": [
                    {
                        "element": "La",
                        "occu": 1
                    }
                ],
                "abc": [
                    0.2794421,
                    0.75,
                    0.98863526
                ],
                "xyz": [
                    3.2811919245666403,
                    5.113654305,
                    5.258981132800684
                ],
                "label": "La",
                "properties": {}
            },
            {
                "species": [
                    {
                        "element": "Ga",
                        "occu": 1
                    }
                ],
                "abc": [
                    0.41044176,
                    0.25,
                    0.93244456
                ],
                "xyz": [
                    4.819381862707584,
                    1.704551435,
                    4.9600783492413925
                ],
                "label": "Ga",
                "properties": {}
            },
            {
                "species": [
                    {
                        "element": "Ga",
                        "occu": 1
                    }
                ],
                "abc": [
                    0.58955824,
                    0.75,
                    0.06755544
                ],
                "xyz": [
                    6.922556537292416,
                    5.113654305,
                    0.35935678075860716
                ],
                "label": "Ga",
                "properties": {}
            },
            {
                "species": [
                    {
                        "element": "Ga",
                        "occu": 1
                    }
                ],
                "abc": [
                    0.08955824,
                    0.75,
                    0.43244456
                ],
                "xyz": [
                    1.051587337292416,
                    5.113654305,
                    2.3003607842413927
                ],
                "label": "Ga",
                "properties": {}
            },
            {
                "species": [
                    {
                        "element": "Ga",
                        "occu": 1
                    }
                ],
                "abc": [
                    0.91044176,
                    0.25,
                    0.56755544
                ],
                "xyz": [
                    10.690351062707585,
                    1.704551435,
                    3.019074345758607
                ],
                "label": "Ga",
                "properties": {}
            },
            {
                "species": [
                    {
                        "element": "O",
                        "occu": 1
                    }
                ],
                "abc": [
                    0.3382012,
                    0.03818743,
                    0.76880996
                ],
                "xyz": [
                    3.97113765720608,
                    0.2603697544218482,
                    4.089634709517894
                ],
                "label": "O",
                "properties": {}
            },
            {
                "species": [
                    {
                        "element": "O",
                        "occu": 1
                    }
                ],
                "abc": [
                    0.3382012,
                    0.46181257,
                    0.76880996
                ],
                "xyz": [
                    3.97113765720608,
                    3.1487331155781515,
                    4.089634709517894
                ],
                "label": "O",
                "properties": {}
            },
            {
                "species": [
                    {
                        "element": "O",
                        "occu": 1
                    }
                ],
                "abc": [
                    0.44708676,
                    0.75,
                    0.22697491
                ],
                "xyz": [
                    5.249665195375584,
                    5.113654305,
                    1.2073783098825883
                ],
                "label": "O",
                "properties": {}
            },
            {
                "species": [
                    {
                        "element": "O",
                        "occu": 1
                    }
                ],
                "abc": [
                    0.90901793,
                    0.25,
                    0.22587999
                ],
                "xyz": [
                    10.673632538555513,
                    1.704551435,
                    1.2015539539700486
                ],
                "label": "O",
                "properties": {}
            },
            {
                "species": [
                    {
                        "element": "O",
                        "occu": 1
                    }
                ],
                "abc": [
                    0.8382012,
                    0.46181257,
                    0.73119004
                ],
                "xyz": [
                    9.84210685720608,
                    3.1487331155781515,
                    3.889517985482105
                ],
                "label": "O",
                "properties": {}
            },
            {
                "species": [
                    {
                        "element": "O",
                        "occu": 1
                    }
                ],
                "abc": [
                    0.05291324,
                    0.25,
                    0.72697491
                ],
                "xyz": [
                    0.621304004624416,
                    1.704551435,
                    3.867095874882588
                ],
                "label": "O",
                "properties": {}
            },
            {
                "species": [
                    {
                        "element": "O",
                        "occu": 1
                    }
                ],
                "abc": [
                    0.1617988,
                    0.96181257,
                    0.26880996
                ],
                "xyz": [
                    1.89983154279392,
                    6.557835985578151,
                    1.4299171445178949
                ],
                "label": "O",
                "properties": {}
            },
            {
                "species": [
                    {
                        "element": "O",
                        "occu": 1
                    }
                ],
                "abc": [
                    0.09098207,
                    0.75,
                    0.77412001
                ],
                "xyz": [
                    1.068305861444488,
                    5.113654305,
                    4.117881176029951
                ],
                "label": "O",
                "properties": {}
            },
            {
                "species": [
                    {
                        "element": "O",
                        "occu": 1
                    }
                ],
                "abc": [
                    0.8382012,
                    0.03818743,
                    0.73119004
                ],
                "xyz": [
                    9.84210685720608,
                    0.2603697544218482,
                    3.889517985482105
                ],
                "label": "O",
                "properties": {}
            },
            {
                "species": [
                    {
                        "element": "O",
                        "occu": 1
                    }
                ],
                "abc": [
                    0.40901793,
                    0.25,
                    0.27412001
                ],
                "xyz": [
                    4.8026633385555115,
                    1.704551435,
                    1.4581636110299514
                ],
                "label": "O",
                "properties": {}
            },
            {
                "species": [
                    {
                        "element": "O",
                        "occu": 1
                    }
                ],
                "abc": [
                    0.59098207,
                    0.75,
                    0.72587999
                ],
                "xyz": [
                    6.939275061444489,
                    5.113654305,
                    3.8612715189700486
                ],
                "label": "O",
                "properties": {}
            },
            {
                "species": [
                    {
                        "element": "O",
                        "occu": 1
                    }
                ],
                "abc": [
                    0.6617988,
                    0.96181257,
                    0.23119004
                ],
                "xyz": [
                    7.770800742793921,
                    6.557835985578151,
                    1.2298004204821051
                ],
                "label": "O",
                "properties": {}
            },
            {
                "species": [
                    {
                        "element": "O",
                        "occu": 1
                    }
                ],
                "abc": [
                    0.1617988,
                    0.53818743,
                    0.26880996
                ],
                "xyz": [
                    1.89983154279392,
                    3.6694726244218483,
                    1.4299171445178949
                ],
                "label": "O",
                "properties": {}
            },
            {
                "species": [
                    {
                        "element": "O",
                        "occu": 1
                    }
                ],
                "abc": [
                    0.6617988,
                    0.53818743,
                    0.23119004
                ],
                "xyz": [
                    7.770800742793921,
                    3.6694726244218483,
                    1.2298004204821051
                ],
                "label": "O",
                "properties": {}
            },
            {
                "species": [
                    {
                        "element": "O",
                        "occu": 1
                    }
                ],
                "abc": [
                    0.55291324,
                    0.25,
                    0.77302509
                ],
                "xyz": [
                    6.492273204624416,
                    1.704551435,
                    4.112056820117411
                ],
                "label": "O",
                "properties": {}
            },
            {
                "species": [
                    {
                        "element": "O",
                        "occu": 1
                    }
                ],
                "abc": [
                    0.94708676,
                    0.75,
                    0.27302509
                ],
                "xyz": [
                    11.120634395375586,
                    5.113654305,
                    1.4523392551174117
                ],
                "label": "O",
                "properties": {}
            }
        ]
    },
    "spacegroup": {
        "source": "spglib",
        "symbol": "Pnma",
        "number": 62,
        "point_group": "mmm",
        "crystal_system": "orthorhombic",
        "hall": "-P 2ac 2n"
    },
    "dielectric": {
        "epsilon_ionic": [
            [
                9.7272092,
                0.0,
                0.0
            ],
            [
                0.0,
                9.55479977,
                1e-08
            ],
            [
                0.0,
                1e-08,
                7.24879134
            ]
        ],
        "epsilon_ionic_avg": 8.843600103333333,
        "epsilon_ionic_eig": [
            7.24879134,
            9.55479977,
            9.7272092
        ],
        "epsilon_electronic": [
            [
                3.79498111,
                0.0,
                0.0
            ],
            [
                0.0,
                3.75656924,
                0.0
            ],
            [
                0.0,
                0.0,
                3.71362698
            ]
        ],
        "epsilon_electronic_avg": 3.75505911,
        "epsilon_electronic_eig": [
            3.79498111,
            3.75656924,
            3.71362698
        ]
    },
    "phonon": {
        "lowest_freq": -0.06427762146349641,
        "frequency": [
            -0.06427762146349641,
            -0.03850200584059227,
            -0.019372496919540284,
            2.119499913363758,
            2.132891377124222,
            2.4777975952670834,
            2.944894286998958,
            3.2273523860979076,
            3.2361584481942267,
            3.3328090144719713,
            3.6074152998597433,
            3.639462810326377,
            3.6637905653584517,
            3.691903944391059,
            3.750352569298074,
            4.145691133074057,
            4.184291728175072,
            4.345288349814546,
            5.0445823671986565,
            5.082806749072507,
            5.318725742128675,
            5.456578337377737,
            5.485085399706037,
            5.527706255696735,
            5.573876500972483,
            5.685447775893186,
            5.804254881658138,
            5.809298232656703,
            6.1768437615765475,
            6.542013570703867,
            6.86604192660693,
            7.071271190701127,
            7.426171573211907,
            7.59606928986427,
            7.726132107882266,
            7.957710168329287,
            8.002331345007185,
            8.078291943630655,
            8.266805485763209,
            8.366258617409349,
            8.367241227610087,
            8.54028206432746,
            8.74703694293537,
            8.946944006706232,
            8.954897961925939,
            9.206425850640116,
            9.257664305086516,
            9.386508346953185,
            9.629508806240077,
            9.640323587095986,
            9.668654289387003,
            9.754283709142042,
            9.827837732815963,
            9.912976664188392,
            10.085940631970248,
            10.138483021786342,
            10.394841519390475,
            10.431559836748185,
            10.806694595866347,
            10.919973453383133,
            11.317315619790026,
            11.782339829349226,
            12.513003576074157,
            12.673169267537546,
            12.674050457989699,
            12.837412174902822,
            13.225568926998195,
            14.020039960491255,
            14.903259406258048,
            14.922366645859762,
            14.959500606268882,
            14.97632871585863,
            15.064360234431275,
            15.106192370223297,
            16.746419663814372,
            17.76210951796776,
            18.395384414825507,
            18.402789973363948,
            18.88140705571484,
            18.952377810487892,
            18.984477539039915,
            19.16263208227985,
            19.18908926422648,
            19.450883105043086
        ]
    },
    "born_effective_charge": {
        "avg_abs_trace": 2.581882857142857,
        "tensors": [
            [
                [
                    2.18866,
                    -0.36778,
                    -0.03789
                ],
                [
                    -0.31249,
                    2.41272,
                    0.23312
                ],
                [
                    -0.02698,
                    0.21601,
                    2.49976
                ]
            ],
            [
                [
                    2.18866,
                    -0.36778,
                    0.03789
                ],
                [
                    -0.31249,
                    2.41272,
                    -0.23312
                ],
                [
                    0.02698,
                    -0.21601,
                    2.49976
                ]
            ],
            [
                [
                    2.18866,
                    0.36778,
                    -0.03789
                ],
                [
                    0.31249,
                    2.41272,
                    -0.23312
                ],
                [
                    -0.02698,
                    -0.21601,
                    2.49976
                ]
            ],
            [
                [
                    2.18866,
                    0.36778,
                    0.03789
                ],
                [
                    0.31249,
                    2.41272,
                    0.23312
                ],
                [
                    0.02698,
                    0.21601,
                    2.49976
                ]
            ],
            [
                [
                    4.46211,
                    0.0,
                    0.03855
                ],
                [
                    7e-05,
                    4.22225,
                    -0.00034
                ],
                [
                    -0.04573,
                    0.0,
                    3.55664
                ]
            ],
            [
                [
                    4.46211,
                    0.0,
                    -0.03855
                ],
                [
                    7e-05,
                    4.22225,
                    0.00034
                ],
                [
                    0.04579,
                    -0.0,
                    3.55669
                ]
            ],
            [
                [
                    4.46215,
                    0.0,
                    -0.03859
                ],
                [
                    -7e-05,
                    4.22225,
                    -0.00034
                ],
                [
                    0.04573,
                    0.0,
                    3.55664
                ]
            ],
            [
                [
                    4.46215,
                    0.0,
                    0.03859
                ],
                [
                    -7e-05,
                    4.22225,
                    0.00034
                ],
                [
                    -0.04579,
                    -0.0,
                    3.55669
                ]
            ],
            [
                [
                    2.53576,
                    0.0,
                    -0.05591
                ],
                [
                    5e-05,
                    2.4947,
                    4e-05
                ],
                [
                    0.04859,
                    0.0,
                    2.73703
                ]
            ],
            [
                [
                    2.53579,
                    0.0,
                    -0.0557
                ],
                [
                    -5e-05,
                    2.4947,
                    -4e-05
                ],
                [
                    0.04879,
                    -0.0,
                    2.73717
                ]
            ],
            [
                [
                    2.53579,
                    0.0,
                    0.0557
                ],
                [
                    -5e-05,
                    2.4947,
                    4e-05
                ],
                [
                    -0.04859,
                    0.0,
                    2.73703
                ]
            ],
            [
                [
                    2.53576,
                    0.0,
                    0.05591
                ],
                [
                    5e-05,
                    2.4947,
                    -4e-05
                ],
                [
                    -0.04879,
                    -0.0,
                    2.73717
                ]
            ],
            [
                [
                    -2.0311,
                    -0.23643,
                    -0.13272
                ],
                [
                    -0.24624,
                    -2.82703,
                    0.47555
                ],
                [
                    -0.12429,
                    0.46219,
                    -2.08089
                ]
            ],
            [
                [
                    -2.0311,
                    0.23643,
                    -0.13272
                ],
                [
                    0.24628,
                    -2.82705,
                    -0.476
                ],
                [
                    -0.12429,
                    -0.46219,
                    -2.08089
                ]
            ],
            [
                [
                    -2.97569,
                    0.0,
                    -0.37222
                ],
                [
                    -2e-05,
                    -1.75289,
                    -0.00012
                ],
                [
                    -0.36989,
                    0.0,
                    -2.0654
                ]
            ],
            [
                [
                    -2.14862,
                    0.0,
                    -0.16158
                ],
                [
                    -4e-05,
                    -1.72272,
                    0.00013
                ],
                [
                    -0.23592,
                    -0.0,
                    -2.5663
                ]
            ],
            [
                [
                    -2.0311,
                    0.23643,
                    0.13272
                ],
                [
                    0.24628,
                    -2.82705,
                    0.476
                ],
                [
                    0.12434,
                    0.46209,
                    -2.08087
                ]
            ],
            [
                [
                    -2.97582,
                    0.0,
                    0.37201
                ],
                [
                    2e-05,
                    -1.75289,
                    -0.00012
                ],
                [
                    0.36989,
                    0.0,
                    -2.0654
                ]
            ],
            [
                [
                    -2.03109,
                    -0.23642,
                    0.13273
                ],
                [
                    -0.24628,
                    -2.82705,
                    -0.476
                ],
                [
                    0.12429,
                    -0.46219,
                    -2.08089
                ]
            ],
            [
                [
                    -2.14863,
                    0.0,
                    -0.16145
                ],
                [
                    4e-05,
                    -1.72272,
                    -0.00013
                ],
                [
                    -0.23581,
                    0.0,
                    -2.56634
                ]
            ],
            [
                [
                    -2.0311,
                    -0.23643,
                    0.13272
                ],
                [
                    -0.24624,
                    -2.82703,
                    -0.47555
                ],
                [
                    0.12434,
                    -0.46209,
                    -2.08087
                ]
            ],
            [
                [
                    -2.14862,
                    0.0,
                    0.16158
                ],
                [
                    -4e-05,
                    -1.72272,
                    -0.00013
                ],
                [
                    0.23581,
                    0.0,
                    -2.56634
                ]
            ],
            [
                [
                    -2.14863,
                    0.0,
                    0.16145
                ],
                [
                    4e-05,
                    -1.72272,
                    0.00013
                ],
                [
                    0.23592,
                    -0.0,
                    -2.5663
                ]
            ],
            [
                [
                    -2.03109,
                    -0.23642,
                    -0.13273
                ],
                [
                    -0.24628,
                    -2.82705,
                    0.476
                ],
                [
                    -0.12434,
                    0.46209,
                    -2.08087
                ]
            ],
            [
                [
                    -2.03109,
                    0.23642,
                    0.13273
                ],
                [
                    0.24624,
                    -2.82703,
                    0.47555
                ],
                [
                    0.12429,
                    0.46219,
                    -2.08089
                ]
            ],
            [
                [
                    -2.03109,
                    0.23642,
                    -0.13273
                ],
                [
                    0.24624,
                    -2.82703,
                    -0.47555
                ],
                [
                    -0.12434,
                    -0.46209,
                    -2.08087
                ]
            ],
            [
                [
                    -2.97582,
                    0.0,
                    -0.37201
                ],
                [
                    2e-05,
                    -1.75289,
                    0.00012
                ],
                [
                    -0.37017,
                    -0.0,
                    -2.06548
                ]
            ],
            [
                [
                    -2.97569,
                    0.0,
                    0.37222
                ],
                [
                    -2e-05,
                    -1.75289,
                    0.00012
                ],
                [
                    0.37017,
                    -0.0,
                    -2.06548
                ]
            ]
        ]
    },
    "band_gap": 3.4839,
    "is_direct": false,
    "formula": "CaLaGaO4"
}