{
    "mp_id": "mp-560605",
    "nelements": 4,
    "nsites": 14,
    "elements": [
        "Au",
        "La",
        "Li",
        "O"
    ],
    "structure": {
        "@module": "pymatgen.core.structure",
        "@class": "Structure",
        "charge": null,
        "lattice": {
            "matrix": [
                [
                    2.85235926,
                    -6.17307743,
                    0.0
                ],
                [
                    2.85235926,
                    6.17307743,
                    0.0
                ],
                [
                    0.0,
                    0.0,
                    5.7051364
                ]
            ],
            "a": 6.800208695685976,
            "b": 6.800208695685976,
            "c": 5.7051364,
            "alpha": 90.0,
            "beta": 90.0,
            "gamma": 130.400045265684,
            "volume": 200.91019586276786
        },
        "sites": [
            {
                "species": [
                    {
                        "element": "Li",
                        "occu": 1
                    }
                ],
                "abc": [
                    0.5,
                    0.5,
                    0.0
                ],
                "xyz": [
                    2.85235926,
                    0.0,
                    0.0
                ],
                "label": "Li",
                "properties": {}
            },
            {
                "species": [
                    {
                        "element": "La",
                        "occu": 1
                    }
                ],
                "abc": [
                    0.6492873,
                    0.3507127,
                    0.5
                ],
                "xyz": [
                    2.85235926,
                    -1.8431241244312782,
                    2.8525682
                ],
                "label": "La",
                "properties": {}
            },
            {
                "species": [
                    {
                        "element": "La",
                        "occu": 1
                    }
                ],
                "abc": [
                    0.14870924,
                    0.85129076,
                    0.0
                ],
                "xyz": [
                    2.85235926,
                    4.337090123847093,
                    0.0
                ],
                "label": "La",
                "properties": {}
            },
            {
                "species": [
                    {
                        "element": "La",
                        "occu": 1
                    }
                ],
                "abc": [
                    0.85129076,
                    0.14870924,
                    0.0
                ],
                "xyz": [
                    2.85235926,
                    -4.337090123847093,
                    0.0
                ],
                "label": "La",
                "properties": {}
            },
            {
                "species": [
                    {
                        "element": "La",
                        "occu": 1
                    }
                ],
                "abc": [
                    0.3507127,
                    0.6492873,
                    0.5
                ],
                "xyz": [
                    2.85235926,
                    1.8431241244312782,
                    2.8525682
                ],
                "label": "La",
                "properties": {}
            },
            {
                "species": [
                    {
                        "element": "Au",
                        "occu": 1
                    }
                ],
                "abc": [
                    0.0,
                    0.0,
                    0.5
                ],
                "xyz": [
                    0.0,
                    0.0,
                    2.8525682
                ],
                "label": "Au",
                "properties": {}
            },
            {
                "species": [
                    {
                        "element": "O",
                        "occu": 1
                    }
                ],
                "abc": [
                    0.0,
                    0.5,
                    0.24934483
                ],
                "xyz": [
                    1.42617963,
                    3.086538715,
                    1.4225462657848118
                ],
                "label": "O",
                "properties": {}
            },
            {
                "species": [
                    {
                        "element": "O",
                        "occu": 1
                    }
                ],
                "abc": [
                    0.5,
                    0.0,
                    0.75065517
                ],
                "xyz": [
                    1.42617963,
                    -3.086538715,
                    4.282590134215188
                ],
                "label": "O",
                "properties": {}
            },
            {
                "species": [
                    {
                        "element": "O",
                        "occu": 1
                    }
                ],
                "abc": [
                    0.0,
                    0.5,
                    0.75065517
                ],
                "xyz": [
                    1.42617963,
                    3.086538715,
                    4.282590134215188
                ],
                "label": "O",
                "properties": {}
            },
            {
                "species": [
                    {
                        "element": "O",
                        "occu": 1
                    }
                ],
                "abc": [
                    0.2477783,
                    0.2477783,
                    0.74767967
                ],
                "xyz": [
                    1.413505456864116,
                    0.0,
                    4.265614500856988
                ],
                "label": "O",
                "properties": {}
            },
            {
                "species": [
                    {
                        "element": "O",
                        "occu": 1
                    }
                ],
                "abc": [
                    0.5,
                    0.0,
                    0.24934483
                ],
                "xyz": [
                    1.42617963,
                    -3.086538715,
                    1.4225462657848118
                ],
                "label": "O",
                "properties": {}
            },
            {
                "species": [
                    {
                        "element": "O",
                        "occu": 1
                    }
                ],
                "abc": [
                    0.2477783,
                    0.2477783,
                    0.25232033
                ],
                "xyz": [
                    1.413505456864116,
                    0.0,
                    1.4395218991430119
                ],
                "label": "O",
                "properties": {}
            },
            {
                "species": [
                    {
                        "element": "O",
                        "occu": 1
                    }
                ],
                "abc": [
                    0.7522217,
                    0.7522217,
                    0.25232033
                ],
                "xyz": [
                    4.291213063135884,
                    0.0,
                    1.4395218991430119
                ],
                "label": "O",
                "properties": {}
            },
            {
                "species": [
                    {
                        "element": "O",
                        "occu": 1
                    }
                ],
                "abc": [
                    0.7522217,
                    0.7522217,
                    0.74767967
                ],
                "xyz": [
                    4.291213063135884,
                    0.0,
                    4.265614500856988
                ],
                "label": "O",
                "properties": {}
            }
        ]
    },
    "spacegroup": {
        "source": "spglib",
        "symbol": "Cmmm",
        "number": 65,
        "point_group": "mmm",
        "crystal_system": "orthorhombic",
        "hall": "-C 2 2"
    },
    "dielectric": {
        "epsilon_ionic": [
            [
                14.64718544,
                0.0,
                7e-08
            ],
            [
                0.0,
                12.80359292,
                0.0
            ],
            [
                7e-08,
                0.0,
                14.65837083
            ]
        ],
        "epsilon_ionic_avg": 14.036383063333332,
        "epsilon_ionic_eig": [
            14.64718543999956,
            14.65837083000044,
            12.80359292
        ],
        "epsilon_electronic": [
            [
                5.04072428,
                0.0,
                0.0
            ],
            [
                0.0,
                4.49562708,
                0.0
            ],
            [
                0.0,
                0.0,
                5.04147307
            ]
        ],
        "epsilon_electronic_avg": 4.8592748100000005,
        "epsilon_electronic_eig": [
            5.04072428,
            4.49562708,
            5.04147307
        ]
    },
    "phonon": {
        "lowest_freq": -0.028955960859640913,
        "frequency": [
            -0.028955960859640913,
            -0.027774096086591347,
            -0.019939198703291115,
            2.9615719634088884,
            3.059509938926429,
            3.0640391816267267,
            3.0756663510614226,
            3.1386266496229585,
            3.7179995492348343,
            3.7211174827440057,
            3.7292887999188755,
            3.8284521550162434,
            4.45276845284005,
            5.446492610552908,
            5.97332588376203,
            6.640284544707345,
            6.783482494143331,
            7.590525038964199,
            8.003067245176576,
            8.31099864664922,
            8.367720346434238,
            8.45140483376554,
            8.45990113622255,
            8.647171982919431,
            8.919740863488123,
            8.948482058848715,
            9.16579944308015,
            9.481110040941136,
            9.517751790332728,
            9.549301135887363,
            9.771358299014087,
            9.783333107077064,
            10.195564753519232,
            13.13729369449291,
            13.302233704126667,
            14.479791366524019,
            15.861162456711533,
            16.28619560516453,
            16.3521942344144,
            16.814537993710086,
            16.849705759286895,
            18.52440505232688
        ]
    },
    "born_effective_charge": {
        "avg_abs_trace": 2.7326707142857143,
        "tensors": [
            [
                [
                    1.78048,
                    -0.0,
                    0.0
                ],
                [
                    -0.0,
                    0.91466,
                    -0.0
                ],
                [
                    0.0,
                    0.0,
                    1.78276
                ]
            ],
            [
                [
                    4.69664,
                    0.0001,
                    0.0
                ],
                [
                    -0.0,
                    4.05421,
                    -0.0
                ],
                [
                    0.0,
                    2e-05,
                    3.4717
                ]
            ],
            [
                [
                    3.54864,
                    -9e-05,
                    0.0
                ],
                [
                    -0.0,
                    3.98265,
                    -0.0
                ],
                [
                    0.0,
                    -0.00041,
                    4.78446
                ]
            ],
            [
                [
                    3.54864,
                    9e-05,
                    0.0
                ],
                [
                    -0.0,
                    3.98249,
                    -0.0
                ],
                [
                    0.0,
                    0.00041,
                    4.78446
                ]
            ],
            [
                [
                    4.69664,
                    -0.0001,
                    0.0
                ],
                [
                    -0.0,
                    4.05406,
                    -0.0
                ],
                [
                    0.0,
                    -2e-05,
                    3.4717
                ]
            ],
            [
                [
                    1.97089,
                    -0.0,
                    0.0
                ],
                [
                    -0.0,
                    -0.10736,
                    -0.0
                ],
                [
                    0.0,
                    -0.0,
                    1.96839
                ]
            ],
            [
                [
                    -2.87692,
                    -0.10751,
                    -4e-05
                ],
                [
                    -0.06695,
                    -2.32473,
                    -2e-05
                ],
                [
                    0.0,
                    0.0,
                    -2.87893
                ]
            ],
            [
                [
                    -2.87692,
                    0.10751,
                    4e-05
                ],
                [
                    0.06695,
                    -2.32473,
                    2e-05
                ],
                [
                    0.0,
                    0.0,
                    -2.87889
                ]
            ],
            [
                [
                    -2.87692,
                    -0.10751,
                    4e-05
                ],
                [
                    -0.06695,
                    -2.32473,
                    2e-05
                ],
                [
                    0.0,
                    0.0,
                    -2.87889
                ]
            ],
            [
                [
                    -2.18334,
                    -0.0,
                    -0.25066
                ],
                [
                    2e-05,
                    -1.89544,
                    0.0
                ],
                [
                    -0.24688,
                    0.0,
                    -2.18731
                ]
            ],
            [
                [
                    -2.87692,
                    0.10751,
                    -4e-05
                ],
                [
                    0.06695,
                    -2.32473,
                    -2e-05
                ],
                [
                    0.0,
                    0.0,
                    -2.87893
                ]
            ],
            [
                [
                    -2.18334,
                    -0.0,
                    0.25066
                ],
                [
                    2e-05,
                    -1.89544,
                    -0.0
                ],
                [
                    0.24737,
                    0.0,
                    -2.1866
                ]
            ],
            [
                [
                    -2.18378,
                    -0.0,
                    -0.25043
                ],
                [
                    -2e-05,
                    -1.89544,
                    -0.0
                ],
                [
                    -0.24737,
                    0.0,
                    -2.1866
                ]
            ],
            [
                [
                    -2.18378,
                    -0.0,
                    0.25043
                ],
                [
                    -2e-05,
                    -1.89544,
                    0.0
                ],
                [
                    0.24688,
                    0.0,
                    -2.18731
                ]
            ]
        ]
    },
    "band_gap": 1.9427000000000003,
    "is_direct": false,
    "formula": "LiLa4AuO8"
}