{
    "mp_id": "mp-5005",
    "nelements": 3,
    "nsites": 22,
    "elements": [
        "B",
        "Mg",
        "O"
    ],
    "structure": {
        "@module": "pymatgen.core.structure",
        "@class": "Structure",
        "charge": null,
        "lattice": {
            "matrix": [
                [
                    4.50268826,
                    0.0,
                    0.0
                ],
                [
                    0.0,
                    5.37816822,
                    0.0
                ],
                [
                    0.0,
                    0.0,
                    8.42564498
                ]
            ],
            "a": 4.50268826,
            "b": 5.37816822,
            "c": 8.42564498,
            "alpha": 90.0,
            "beta": 90.0,
            "gamma": 90.0,
            "volume": 204.037229544694
        },
        "sites": [
            {
                "species": [
                    {
                        "element": "Mg",
                        "occu": 1
                    }
                ],
                "abc": [
                    0.0,
                    0.5,
                    0.81321821
                ],
                "xyz": [
                    0.0,
                    2.68908411,
                    6.851887928731085
                ],
                "label": "Mg",
                "properties": {}
            },
            {
                "species": [
                    {
                        "element": "Mg",
                        "occu": 1
                    }
                ],
                "abc": [
                    0.5,
                    0.0,
                    0.68678179
                ],
                "xyz": [
                    2.25134413,
                    0.0,
                    5.786579541268914
                ],
                "label": "Mg",
                "properties": {}
            },
            {
                "species": [
                    {
                        "element": "Mg",
                        "occu": 1
                    }
                ],
                "abc": [
                    0.0,
                    0.5,
                    0.18678179
                ],
                "xyz": [
                    0.0,
                    2.68908411,
                    1.573757051268914
                ],
                "label": "Mg",
                "properties": {}
            },
            {
                "species": [
                    {
                        "element": "Mg",
                        "occu": 1
                    }
                ],
                "abc": [
                    0.5,
                    0.0,
                    0.31321821
                ],
                "xyz": [
                    2.25134413,
                    0.0,
                    2.6390654387310857
                ],
                "label": "Mg",
                "properties": {}
            },
            {
                "species": [
                    {
                        "element": "Mg",
                        "occu": 1
                    }
                ],
                "abc": [
                    0.5,
                    0.5,
                    0.5
                ],
                "xyz": [
                    2.25134413,
                    2.68908411,
                    4.21282249
                ],
                "label": "Mg",
                "properties": {}
            },
            {
                "species": [
                    {
                        "element": "Mg",
                        "occu": 1
                    }
                ],
                "abc": [
                    0.0,
                    0.0,
                    0.0
                ],
                "xyz": [
                    0.0,
                    0.0,
                    0.0
                ],
                "label": "Mg",
                "properties": {}
            },
            {
                "species": [
                    {
                        "element": "B",
                        "occu": 1
                    }
                ],
                "abc": [
                    0.04680414,
                    0.24279856,
                    0.5
                ],
                "xyz": [
                    0.21074445169739642,
                    1.3058114992537633,
                    4.21282249
                ],
                "label": "B",
                "properties": {}
            },
            {
                "species": [
                    {
                        "element": "B",
                        "occu": 1
                    }
                ],
                "abc": [
                    0.45319586,
                    0.74279856,
                    0.0
                ],
                "xyz": [
                    2.0405996783026037,
                    3.994895609253763,
                    0.0
                ],
                "label": "B",
                "properties": {}
            },
            {
                "species": [
                    {
                        "element": "B",
                        "occu": 1
                    }
                ],
                "abc": [
                    0.95319586,
                    0.75720144,
                    0.5
                ],
                "xyz": [
                    4.291943808302604,
                    4.072356720746237,
                    4.21282249
                ],
                "label": "B",
                "properties": {}
            },
            {
                "species": [
                    {
                        "element": "B",
                        "occu": 1
                    }
                ],
                "abc": [
                    0.54680414,
                    0.25720144,
                    0.0
                ],
                "xyz": [
                    2.4620885816973965,
                    1.3832726107462368,
                    0.0
                ],
                "label": "B",
                "properties": {}
            },
            {
                "species": [
                    {
                        "element": "O",
                        "occu": 1
                    }
                ],
                "abc": [
                    0.29722849,
                    0.79603691,
                    0.13950517
                ],
                "xyz": [
                    1.3383272324605275,
                    4.281220411309,
                    1.1754210352945467
                ],
                "label": "O",
                "properties": {}
            },
            {
                "species": [
                    {
                        "element": "O",
                        "occu": 1
                    }
                ],
                "abc": [
                    0.79722849,
                    0.70396309,
                    0.36049483
                ],
                "xyz": [
                    3.5896713624605274,
                    3.786031918691,
                    3.0374014547054533
                ],
                "label": "O",
                "properties": {}
            },
            {
                "species": [
                    {
                        "element": "O",
                        "occu": 1
                    }
                ],
                "abc": [
                    0.29722849,
                    0.79603691,
                    0.86049483
                ],
                "xyz": [
                    1.3383272324605275,
                    4.281220411309,
                    7.2502239447054535
                ],
                "label": "O",
                "properties": {}
            },
            {
                "species": [
                    {
                        "element": "O",
                        "occu": 1
                    }
                ],
                "abc": [
                    0.70277151,
                    0.20396309,
                    0.86049483
                ],
                "xyz": [
                    3.164361027539473,
                    1.0969478086909998,
                    7.2502239447054535
                ],
                "label": "O",
                "properties": {}
            },
            {
                "species": [
                    {
                        "element": "O",
                        "occu": 1
                    }
                ],
                "abc": [
                    0.79722849,
                    0.70396309,
                    0.63950517
                ],
                "xyz": [
                    3.5896713624605274,
                    3.786031918691,
                    5.388243525294546
                ],
                "label": "O",
                "properties": {}
            },
            {
                "species": [
                    {
                        "element": "O",
                        "occu": 1
                    }
                ],
                "abc": [
                    0.20277151,
                    0.29603691,
                    0.63950517
                ],
                "xyz": [
                    0.9130168975394726,
                    1.5921363013090002,
                    5.388243525294546
                ],
                "label": "O",
                "properties": {}
            },
            {
                "species": [
                    {
                        "element": "O",
                        "occu": 1
                    }
                ],
                "abc": [
                    0.25025813,
                    0.32354383,
                    0.0
                ],
                "xyz": [
                    1.126834343920554,
                    1.7400731442830826,
                    0.0
                ],
                "label": "O",
                "properties": {}
            },
            {
                "species": [
                    {
                        "element": "O",
                        "occu": 1
                    }
                ],
                "abc": [
                    0.75025813,
                    0.17645617,
                    0.5
                ],
                "xyz": [
                    3.378178473920554,
                    0.9490109657169173,
                    4.21282249
                ],
                "label": "O",
                "properties": {}
            },
            {
                "species": [
                    {
                        "element": "O",
                        "occu": 1
                    }
                ],
                "abc": [
                    0.24974187,
                    0.82354383,
                    0.5
                ],
                "xyz": [
                    1.1245097860794462,
                    4.429157254283083,
                    4.21282249
                ],
                "label": "O",
                "properties": {}
            },
            {
                "species": [
                    {
                        "element": "O",
                        "occu": 1
                    }
                ],
                "abc": [
                    0.74974187,
                    0.67645617,
                    0.0
                ],
                "xyz": [
                    3.3758539160794463,
                    3.6380950757169175,
                    0.0
                ],
                "label": "O",
                "properties": {}
            },
            {
                "species": [
                    {
                        "element": "O",
                        "occu": 1
                    }
                ],
                "abc": [
                    0.70277151,
                    0.20396309,
                    0.13950517
                ],
                "xyz": [
                    3.164361027539473,
                    1.0969478086909998,
                    1.1754210352945467
                ],
                "label": "O",
                "properties": {}
            },
            {
                "species": [
                    {
                        "element": "O",
                        "occu": 1
                    }
                ],
                "abc": [
                    0.20277151,
                    0.29603691,
                    0.36049483
                ],
                "xyz": [
                    0.9130168975394726,
                    1.5921363013090002,
                    3.0374014547054533
                ],
                "label": "O",
                "properties": {}
            }
        ]
    },
    "spacegroup": {
        "source": "spglib",
        "symbol": "Pnnm",
        "number": 58,
        "point_group": "mmm",
        "crystal_system": "orthorhombic",
        "hall": "-P 2 2n"
    },
    "dielectric": {
        "epsilon_ionic": [
            [
                4.72656675,
                0.0,
                1e-08
            ],
            [
                0.0,
                4.43354211,
                -0.0
            ],
            [
                1e-08,
                -0.0,
                4.2393639
            ]
        ],
        "epsilon_ionic_avg": 4.466490920000001,
        "epsilon_ionic_eig": [
            4.72656675,
            4.2393639,
            4.43354211
        ],
        "epsilon_electronic": [
            [
                2.92816734,
                0.0,
                0.0
            ],
            [
                -0.0,
                2.87336936,
                0.0
            ],
            [
                0.0,
                0.0,
                2.85818835
            ]
        ],
        "epsilon_electronic_avg": 2.8865750166666664,
        "epsilon_electronic_eig": [
            2.92816734,
            2.87336936,
            2.85818835
        ]
    },
    "phonon": {
        "lowest_freq": -0.026330614295650815,
        "frequency": [
            -0.026330614295650815,
            -0.015216769965970087,
            -0.008895627183350865,
            4.547664781697725,
            5.133065646659152,
            5.601869851747959,
            5.994213810971676,
            6.316850552382831,
            6.451194673417272,
            7.379235591814587,
            7.830082567739123,
            7.971297836056453,
            8.1567582337565,
            8.15828817572516,
            8.419882403633297,
            8.510173661625192,
            8.836507762473417,
            8.992729825210205,
            9.179345471480977,
            9.397003916282754,
            9.682920286160304,
            9.747811034573598,
            9.814719994803953,
            10.01172373817546,
            10.143676188586124,
            10.481108171775315,
            10.516322625046536,
            10.578446608815792,
            10.913603591399381,
            11.452144579754014,
            11.58302162990071,
            11.949155559463549,
            12.205802440374582,
            12.24483941359435,
            12.314874609270149,
            12.522031334347433,
            12.611972184284857,
            12.669778094151598,
            13.444449319576039,
            13.595993816952374,
            14.363136195411832,
            14.857514648343544,
            15.929154755871826,
            16.675007635055945,
            16.760121634506927,
            17.490578031527104,
            18.28375536839903,
            18.31867802563346,
            20.000284351210134,
            20.03655085023503,
            20.213378209128965,
            20.430357496321953,
            22.229969517269915,
            22.232671885658757,
            26.308896746530223,
            26.313693153324433,
            26.765011479336874,
            27.0724912746263,
            34.31553743581039,
            34.98999002080655,
            35.02372449061081,
            37.34244695609874,
            37.717740362234125,
            37.84543642334703,
            38.556006056833844,
            38.95208418586562
        ]
    },
    "born_effective_charge": {
        "avg_abs_trace": 1.8860390909090912,
        "tensors": [
            [
                [
                    2.06923,
                    0.04161,
                    1e-05
                ],
                [
                    -0.01335,
                    2.01462,
                    0.0
                ],
                [
                    0.0,
                    -0.0,
                    2.2535
                ]
            ],
            [
                [
                    2.06923,
                    -0.04161,
                    -1e-05
                ],
                [
                    0.01335,
                    2.01462,
                    -0.0
                ],
                [
                    0.0,
                    -0.0,
                    2.25349
                ]
            ],
            [
                [
                    2.06923,
                    0.04161,
                    -1e-05
                ],
                [
                    -0.01335,
                    2.01462,
                    -0.0
                ],
                [
                    0.0,
                    -0.0,
                    2.25349
                ]
            ],
            [
                [
                    2.06923,
                    -0.04161,
                    1e-05
                ],
                [
                    0.01335,
                    2.01462,
                    0.0
                ],
                [
                    0.0,
                    -0.0,
                    2.2535
                ]
            ],
            [
                [
                    2.26461,
                    -0.04935,
                    0.0
                ],
                [
                    0.08298,
                    2.12974,
                    0.0
                ],
                [
                    0.0,
                    -0.0,
                    1.58772
                ]
            ],
            [
                [
                    2.26461,
                    0.04935,
                    0.0
                ],
                [
                    -0.08298,
                    2.12974,
                    0.0
                ],
                [
                    0.0,
                    -0.0,
                    1.58772
                ]
            ],
            [
                [
                    2.42951,
                    0.3975,
                    0.0
                ],
                [
                    0.45829,
                    1.53137,
                    0.0
                ],
                [
                    -2e-05,
                    1e-05,
                    2.27067
                ]
            ],
            [
                [
                    2.42937,
                    -0.39753,
                    0.0
                ],
                [
                    -0.45829,
                    1.53137,
                    0.0
                ],
                [
                    2e-05,
                    1e-05,
                    2.27067
                ]
            ],
            [
                [
                    2.42937,
                    0.39753,
                    0.0
                ],
                [
                    0.45822,
                    1.5313,
                    0.0
                ],
                [
                    2e-05,
                    -1e-05,
                    2.27067
                ]
            ],
            [
                [
                    2.42951,
                    -0.3975,
                    0.0
                ],
                [
                    -0.45822,
                    1.5313,
                    0.0
                ],
                [
                    -2e-05,
                    -1e-05,
                    2.27067
                ]
            ],
            [
                [
                    -1.62008,
                    0.01618,
                    0.3238
                ],
                [
                    0.04642,
                    -1.45187,
                    -0.23692
                ],
                [
                    0.32532,
                    -0.09097,
                    -2.03472
                ]
            ],
            [
                [
                    -1.62008,
                    -0.01618,
                    -0.3238
                ],
                [
                    -0.04644,
                    -1.45182,
                    -0.23674
                ],
                [
                    -0.32549,
                    -0.09099,
                    -2.03476
                ]
            ],
            [
                [
                    -1.62008,
                    0.01618,
                    -0.3238
                ],
                [
                    0.04642,
                    -1.45187,
                    0.23692
                ],
                [
                    -0.32549,
                    0.09099,
                    -2.03476
                ]
            ],
            [
                [
                    -1.61998,
                    0.01624,
                    0.32374
                ],
                [
                    0.04644,
                    -1.45182,
                    -0.23674
                ],
                [
                    0.32549,
                    -0.09099,
                    -2.03476
                ]
            ],
            [
                [
                    -1.62008,
                    -0.01618,
                    0.3238
                ],
                [
                    -0.04644,
                    -1.45182,
                    0.23674
                ],
                [
                    0.32532,
                    0.09097,
                    -2.03472
                ]
            ],
            [
                [
                    -1.61998,
                    -0.01624,
                    -0.32374
                ],
                [
                    -0.04642,
                    -1.45187,
                    -0.23692
                ],
                [
                    -0.32532,
                    -0.09097,
                    -2.03472
                ]
            ],
            [
                [
                    -2.39091,
                    0.15209,
                    0.0
                ],
                [
                    0.18979,
                    -1.70717,
                    0.0
                ],
                [
                    5e-05,
                    -2e-05,
                    -1.24854
                ]
            ],
            [
                [
                    -2.39091,
                    -0.15209,
                    0.0
                ],
                [
                    -0.18992,
                    -1.7071,
                    0.0
                ],
                [
                    5e-05,
                    2e-05,
                    -1.24854
                ]
            ],
            [
                [
                    -2.39092,
                    -0.15231,
                    0.0
                ],
                [
                    -0.18979,
                    -1.70717,
                    0.0
                ],
                [
                    -5e-05,
                    -2e-05,
                    -1.24854
                ]
            ],
            [
                [
                    -2.39092,
                    0.15231,
                    0.0
                ],
                [
                    0.18992,
                    -1.7071,
                    0.0
                ],
                [
                    -5e-05,
                    2e-05,
                    -1.24854
                ]
            ],
            [
                [
                    -1.61998,
                    0.01624,
                    -0.32374
                ],
                [
                    0.04644,
                    -1.45182,
                    0.23674
                ],
                [
                    -0.32532,
                    0.09097,
                    -2.03472
                ]
            ],
            [
                [
                    -1.61998,
                    -0.01624,
                    0.32374
                ],
                [
                    -0.04642,
                    -1.45187,
                    0.23692
                ],
                [
                    0.32549,
                    0.09099,
                    -2.03476
                ]
            ]
        ]
    },
    "band_gap": 5.2995,
    "is_direct": false,
    "formula": "Mg3(BO3)2"
}