{
    "mp_id": "mp-5403",
    "nelements": 3,
    "nsites": 24,
    "elements": [
        "O",
        "Rb",
        "Ti"
    ],
    "structure": {
        "@module": "pymatgen.core.structure",
        "@class": "Structure",
        "charge": null,
        "lattice": {
            "matrix": [
                [
                    3.03313014,
                    -5.96875148,
                    0.0
                ],
                [
                    3.03313014,
                    5.96875148,
                    0.0
                ],
                [
                    0.0,
                    0.0,
                    13.30701548
                ]
            ],
            "a": 6.695212668480264,
            "b": 6.695212668480264,
            "c": 13.30701548,
            "alpha": 90.0,
            "beta": 90.0,
            "gamma": 126.12353459420024,
            "volume": 481.8204168234029
        },
        "sites": [
            {
                "species": [
                    {
                        "element": "Rb",
                        "occu": 1
                    }
                ],
                "abc": [
                    0.8692012,
                    0.1307988,
                    0.5748438
                ],
                "xyz": [
                    3.03313014,
                    -4.407340417835552,
                    7.649455345182025
                ],
                "label": "Rb",
                "properties": {}
            },
            {
                "species": [
                    {
                        "element": "Rb",
                        "occu": 1
                    }
                ],
                "abc": [
                    0.3692012,
                    0.6307988,
                    0.9251562
                ],
                "xyz": [
                    3.03313014,
                    1.5614110621644475,
                    12.311067874817976
                ],
                "label": "Rb",
                "properties": {}
            },
            {
                "species": [
                    {
                        "element": "Rb",
                        "occu": 1
                    }
                ],
                "abc": [
                    0.6307988,
                    0.3692012,
                    0.0748438
                ],
                "xyz": [
                    3.03313014,
                    -1.5614110621644475,
                    0.9959476051820241
                ],
                "label": "Rb",
                "properties": {}
            },
            {
                "species": [
                    {
                        "element": "Rb",
                        "occu": 1
                    }
                ],
                "abc": [
                    0.1307988,
                    0.8692012,
                    0.4251562
                ],
                "xyz": [
                    3.03313014,
                    4.407340417835552,
                    5.657560134817976
                ],
                "label": "Rb",
                "properties": {}
            },
            {
                "species": [
                    {
                        "element": "Rb",
                        "occu": 1
                    }
                ],
                "abc": [
                    0.94275053,
                    0.05724947,
                    0.13710256
                ],
                "xyz": [
                    3.0331301399999995,
                    -5.285335762416569,
                    1.824425888267629
                ],
                "label": "Rb",
                "properties": {}
            },
            {
                "species": [
                    {
                        "element": "Rb",
                        "occu": 1
                    }
                ],
                "abc": [
                    0.05724947,
                    0.94275053,
                    0.86289744
                ],
                "xyz": [
                    3.0331301399999995,
                    5.285335762416569,
                    11.482589591732372
                ],
                "label": "Rb",
                "properties": {}
            },
            {
                "species": [
                    {
                        "element": "Rb",
                        "occu": 1
                    }
                ],
                "abc": [
                    0.55724947,
                    0.44275053,
                    0.63710256
                ],
                "xyz": [
                    3.03313014,
                    -0.6834157175834319,
                    8.477933628267628
                ],
                "label": "Rb",
                "properties": {}
            },
            {
                "species": [
                    {
                        "element": "Rb",
                        "occu": 1
                    }
                ],
                "abc": [
                    0.44275053,
                    0.55724947,
                    0.36289744
                ],
                "xyz": [
                    3.03313014,
                    0.6834157175834319,
                    4.829081851732371
                ],
                "label": "Rb",
                "properties": {}
            },
            {
                "species": [
                    {
                        "element": "Ti",
                        "occu": 1
                    }
                ],
                "abc": [
                    0.25396715,
                    0.74603285,
                    0.16793704
                ],
                "xyz": [
                    3.03313014,
                    2.937017875132236,
                    2.2347407909453794
                ],
                "label": "Ti",
                "properties": {}
            },
            {
                "species": [
                    {
                        "element": "Ti",
                        "occu": 1
                    }
                ],
                "abc": [
                    0.24603285,
                    0.75396715,
                    0.66793704
                ],
                "xyz": [
                    3.03313014,
                    3.031733604867764,
                    8.88824853094538
                ],
                "label": "Ti",
                "properties": {}
            },
            {
                "species": [
                    {
                        "element": "Ti",
                        "occu": 1
                    }
                ],
                "abc": [
                    0.74603285,
                    0.25396715,
                    0.83206296
                ],
                "xyz": [
                    3.03313014,
                    -2.937017875132236,
                    11.072274689054622
                ],
                "label": "Ti",
                "properties": {}
            },
            {
                "species": [
                    {
                        "element": "Ti",
                        "occu": 1
                    }
                ],
                "abc": [
                    0.75396715,
                    0.24603285,
                    0.33206296
                ],
                "xyz": [
                    3.03313014,
                    -3.031733604867764,
                    4.418766949054621
                ],
                "label": "Ti",
                "properties": {}
            },
            {
                "species": [
                    {
                        "element": "O",
                        "occu": 1
                    }
                ],
                "abc": [
                    0.4696046,
                    0.0303954,
                    0.25
                ],
                "xyz": [
                    1.51656507,
                    -2.6215305625296157,
                    3.32675387
                ],
                "label": "O",
                "properties": {}
            },
            {
                "species": [
                    {
                        "element": "O",
                        "occu": 1
                    }
                ],
                "abc": [
                    0.0303954,
                    0.4696046,
                    0.75
                ],
                "xyz": [
                    1.51656507,
                    2.6215305625296157,
                    9.98026161
                ],
                "label": "O",
                "properties": {}
            },
            {
                "species": [
                    {
                        "element": "O",
                        "occu": 1
                    }
                ],
                "abc": [
                    0.5303954,
                    0.9696046,
                    0.75
                ],
                "xyz": [
                    4.549695209999999,
                    2.6215305625296166,
                    9.98026161
                ],
                "label": "O",
                "properties": {}
            },
            {
                "species": [
                    {
                        "element": "O",
                        "occu": 1
                    }
                ],
                "abc": [
                    0.9696046,
                    0.5303954,
                    0.25
                ],
                "xyz": [
                    4.549695209999999,
                    -2.6215305625296166,
                    3.32675387
                ],
                "label": "O",
                "properties": {}
            },
            {
                "species": [
                    {
                        "element": "O",
                        "occu": 1
                    }
                ],
                "abc": [
                    0.90167294,
                    0.09832706,
                    0.36357269
                ],
                "xyz": [
                    3.03313014,
                    -4.794971910201902,
                    4.838067413935241
                ],
                "label": "O",
                "properties": {}
            },
            {
                "species": [
                    {
                        "element": "O",
                        "occu": 1
                    }
                ],
                "abc": [
                    0.09832706,
                    0.90167294,
                    0.63642731
                ],
                "xyz": [
                    3.03313014,
                    4.794971910201902,
                    8.468948066064758
                ],
                "label": "O",
                "properties": {}
            },
            {
                "species": [
                    {
                        "element": "O",
                        "occu": 1
                    }
                ],
                "abc": [
                    0.59832706,
                    0.40167294,
                    0.86357269
                ],
                "xyz": [
                    3.03313014,
                    -1.1737795697980982,
                    11.491575153935242
                ],
                "label": "O",
                "properties": {}
            },
            {
                "species": [
                    {
                        "element": "O",
                        "occu": 1
                    }
                ],
                "abc": [
                    0.16564031,
                    0.83435969,
                    0.05721907
                ],
                "xyz": [
                    3.03313014,
                    3.991419789079682,
                    0.7614150502412036
                ],
                "label": "O",
                "properties": {}
            },
            {
                "species": [
                    {
                        "element": "O",
                        "occu": 1
                    }
                ],
                "abc": [
                    0.66564031,
                    0.33435969,
                    0.44278093
                ],
                "xyz": [
                    3.03313014,
                    -1.9773316909203178,
                    5.892092689758797
                ],
                "label": "O",
                "properties": {}
            },
            {
                "species": [
                    {
                        "element": "O",
                        "occu": 1
                    }
                ],
                "abc": [
                    0.33435969,
                    0.66564031,
                    0.55721907
                ],
                "xyz": [
                    3.03313014,
                    1.9773316909203178,
                    7.414922790241205
                ],
                "label": "O",
                "properties": {}
            },
            {
                "species": [
                    {
                        "element": "O",
                        "occu": 1
                    }
                ],
                "abc": [
                    0.83435969,
                    0.16564031,
                    0.94278093
                ],
                "xyz": [
                    3.03313014,
                    -3.991419789079682,
                    12.545600429758796
                ],
                "label": "O",
                "properties": {}
            },
            {
                "species": [
                    {
                        "element": "O",
                        "occu": 1
                    }
                ],
                "abc": [
                    0.40167294,
                    0.59832706,
                    0.13642731
                ],
                "xyz": [
                    3.03313014,
                    1.1737795697980982,
                    1.815440326064759
                ],
                "label": "O",
                "properties": {}
            }
        ]
    },
    "spacegroup": {
        "source": "spglib",
        "symbol": "Cmce",
        "number": 64,
        "point_group": "mmm",
        "crystal_system": "orthorhombic",
        "hall": "-C 2bc 2"
    },
    "dielectric": {
        "epsilon_ionic": [
            [
                8.42608551,
                -6e-08,
                -4e-08
            ],
            [
                -6e-08,
                4.33063264,
                3.8e-07
            ],
            [
                -4e-08,
                3.8e-07,
                4.84682344
            ]
        ],
        "epsilon_ionic_avg": 5.867847196666667,
        "epsilon_ionic_eig": [
            8.426085510000004,
            4.3306326399997195,
            4.846823440000279
        ],
        "epsilon_electronic": [
            [
                3.07289712,
                0.0,
                0.0
            ],
            [
                0.0,
                3.00683776,
                -0.0
            ],
            [
                0.0,
                0.0,
                3.11976181
            ]
        ],
        "epsilon_electronic_avg": 3.066498896666667,
        "epsilon_electronic_eig": [
            3.07289712,
            3.00683776,
            3.11976181
        ]
    },
    "phonon": {
        "lowest_freq": -0.0414825189473708,
        "frequency": [
            -0.0414825189473708,
            -0.033125167546976114,
            -0.009743379775422391,
            1.0669438129405717,
            1.1905126885854151,
            1.266458382144004,
            1.3197895776750748,
            1.513857745629013,
            1.7264233238194675,
            1.760792316611151,
            1.7763502901480308,
            2.0113180027148374,
            2.0705636887591834,
            2.1276586197560694,
            2.1439971753415334,
            2.206540129802425,
            2.3436294166566425,
            2.462639126676998,
            2.4838199024122414,
            2.5059721563373536,
            2.598882658871744,
            2.719559213679759,
            2.747327510913538,
            2.809596710856069,
            2.936739615459241,
            2.941320943938048,
            3.041604136458958,
            3.117686748407581,
            3.2791533436807683,
            3.3325760429179425,
            3.5280421132445117,
            3.6127344534568318,
            3.928700329902396,
            4.051061601431145,
            4.150973809136497,
            4.467495495000494,
            4.736029203018655,
            4.760048351159565,
            4.767732818683097,
            5.298223841527846,
            5.599777286974727,
            5.647271715914035,
            6.751655728538184,
            6.83205035800695,
            6.898977164515759,
            7.485259950421048,
            8.11945916653938,
            8.145138209514409,
            8.157958968522001,
            8.399886463813534,
            8.557722534776717,
            8.765516076871753,
            8.904783560290237,
            8.971276279035523,
            9.163975286347535,
            9.250555419807036,
            12.102375076963646,
            12.126491941288055,
            13.984342371845775,
            14.039847886421377,
            20.597520523002515,
            20.599748152461945,
            21.7385067882512,
            22.750820033858474,
            22.808581619998165,
            22.913252895160998,
            23.19695153256068,
            23.403909568149942,
            23.841671711098837,
            24.094063706599677,
            24.76000406478947,
            25.67461461555327
        ]
    },
    "born_effective_charge": {
        "avg_abs_trace": 1.957533611111111,
        "tensors": [
            [
                [
                    1.1251,
                    -4e-05,
                    3e-05
                ],
                [
                    0.0,
                    1.17542,
                    -0.13907
                ],
                [
                    0.0,
                    -0.08974,
                    1.32404
                ]
            ],
            [
                [
                    1.1251,
                    -4e-05,
                    -3e-05
                ],
                [
                    0.0,
                    1.17542,
                    0.13907
                ],
                [
                    -0.0,
                    0.08952,
                    1.324
                ]
            ],
            [
                [
                    1.1251,
                    4e-05,
                    3e-05
                ],
                [
                    0.0,
                    1.17535,
                    0.13922
                ],
                [
                    -0.0,
                    0.08974,
                    1.32404
                ]
            ],
            [
                [
                    1.1251,
                    4e-05,
                    -3e-05
                ],
                [
                    0.0,
                    1.17535,
                    -0.13922
                ],
                [
                    0.0,
                    -0.08952,
                    1.324
                ]
            ],
            [
                [
                    1.19379,
                    -6e-05,
                    2e-05
                ],
                [
                    0.0,
                    1.31562,
                    0.09717
                ],
                [
                    0.0,
                    -0.05368,
                    1.22753
                ]
            ],
            [
                [
                    1.19379,
                    6e-05,
                    -2e-05
                ],
                [
                    0.0,
                    1.31581,
                    0.09661
                ],
                [
                    0.0,
                    -0.05341,
                    1.22746
                ]
            ],
            [
                [
                    1.19379,
                    6e-05,
                    2e-05
                ],
                [
                    0.0,
                    1.31581,
                    -0.09661
                ],
                [
                    0.0,
                    0.05368,
                    1.22753
                ]
            ],
            [
                [
                    1.19379,
                    -6e-05,
                    -2e-05
                ],
                [
                    0.0,
                    1.31562,
                    -0.09717
                ],
                [
                    0.0,
                    0.05341,
                    1.22746
                ]
            ],
            [
                [
                    3.72896,
                    -5e-05,
                    -2e-05
                ],
                [
                    0.0,
                    3.01896,
                    -0.33121
                ],
                [
                    0.0,
                    0.0557,
                    3.50875
                ]
            ],
            [
                [
                    3.72896,
                    5e-05,
                    -2e-05
                ],
                [
                    0.0,
                    3.01806,
                    0.33047
                ],
                [
                    0.0,
                    -0.0557,
                    3.50875
                ]
            ],
            [
                [
                    3.72896,
                    5e-05,
                    2e-05
                ],
                [
                    0.0,
                    3.01806,
                    -0.33047
                ],
                [
                    0.0,
                    0.05591,
                    3.5089
                ]
            ],
            [
                [
                    3.72896,
                    -5e-05,
                    2e-05
                ],
                [
                    0.0,
                    3.01896,
                    0.33121
                ],
                [
                    0.0,
                    -0.05591,
                    3.5089
                ]
            ],
            [
                [
                    -3.49716,
                    7e-05,
                    -1.70096
                ],
                [
                    0.0,
                    -0.87243,
                    0.0
                ],
                [
                    -1.51511,
                    -7e-05,
                    -2.1886
                ]
            ],
            [
                [
                    -3.49716,
                    -7e-05,
                    1.70096
                ],
                [
                    0.0,
                    -0.87248,
                    0.0
                ],
                [
                    1.51511,
                    7e-05,
                    -2.1886
                ]
            ],
            [
                [
                    -3.49716,
                    -7e-05,
                    -1.70096
                ],
                [
                    0.0,
                    -0.87248,
                    0.0
                ],
                [
                    -1.51511,
                    7e-05,
                    -2.1886
                ]
            ],
            [
                [
                    -3.49716,
                    7e-05,
                    1.70096
                ],
                [
                    0.0,
                    -0.87243,
                    0.0
                ],
                [
                    1.51511,
                    -7e-05,
                    -2.1886
                ]
            ],
            [
                [
                    -1.2535,
                    0.00016,
                    -2e-05
                ],
                [
                    0.0,
                    -2.70853,
                    0.43219
                ],
                [
                    0.0,
                    0.49485,
                    -1.36779
                ]
            ],
            [
                [
                    -1.2535,
                    -0.00016,
                    2e-05
                ],
                [
                    0.0,
                    -2.70676,
                    0.43179
                ],
                [
                    0.0,
                    0.49515,
                    -1.36801
                ]
            ],
            [
                [
                    -1.2535,
                    -0.00016,
                    -2e-05
                ],
                [
                    0.0,
                    -2.70676,
                    -0.43179
                ],
                [
                    0.0,
                    -0.49485,
                    -1.36779
                ]
            ],
            [
                [
                    -1.29719,
                    -0.00011,
                    0.0
                ],
                [
                    0.0,
                    -1.93,
                    0.88267
                ],
                [
                    0.0,
                    0.89285,
                    -2.50371
                ]
            ],
            [
                [
                    -1.29719,
                    -0.00011,
                    -0.0
                ],
                [
                    0.0,
                    -1.93,
                    -0.88267
                ],
                [
                    0.0,
                    -0.8929,
                    -2.50399
                ]
            ],
            [
                [
                    -1.29719,
                    0.00011,
                    0.0
                ],
                [
                    0.0,
                    -1.92901,
                    -0.88126
                ],
                [
                    0.0,
                    -0.89285,
                    -2.50371
                ]
            ],
            [
                [
                    -1.29719,
                    0.00011,
                    -0.0
                ],
                [
                    0.0,
                    -1.92901,
                    0.88126
                ],
                [
                    0.0,
                    0.8929,
                    -2.50399
                ]
            ],
            [
                [
                    -1.2535,
                    0.00016,
                    2e-05
                ],
                [
                    0.0,
                    -2.70853,
                    -0.43219
                ],
                [
                    0.0,
                    -0.49515,
                    -1.36801
                ]
            ]
        ]
    },
    "band_gap": 3.8638000000000003,
    "is_direct": false,
    "formula": "Rb2TiO3"
}