{
    "mp_id": "mp-5478",
    "nelements": 3,
    "nsites": 16,
    "elements": [
        "O",
        "Pd",
        "Tl"
    ],
    "structure": {
        "@module": "pymatgen.core.structure",
        "@class": "Structure",
        "charge": null,
        "lattice": {
            "matrix": [
                [
                    0.0,
                    4.75446155,
                    4.75446155
                ],
                [
                    4.75446155,
                    0.0,
                    4.75446155
                ],
                [
                    4.75446155,
                    4.75446155,
                    0.0
                ]
            ],
            "a": 6.723824005791408,
            "b": 6.723824005791408,
            "c": 6.723824005791408,
            "alpha": 60.00000000000001,
            "beta": 60.00000000000001,
            "gamma": 60.00000000000001,
            "volume": 214.94829981357762
        },
        "sites": [
            {
                "species": [
                    {
                        "element": "Tl",
                        "occu": 1
                    }
                ],
                "abc": [
                    0.5,
                    0.5,
                    0.5
                ],
                "xyz": [
                    4.75446155,
                    4.75446155,
                    4.75446155
                ],
                "label": "Tl",
                "properties": {}
            },
            {
                "species": [
                    {
                        "element": "Tl",
                        "occu": 1
                    }
                ],
                "abc": [
                    0.0,
                    0.0,
                    0.0
                ],
                "xyz": [
                    0.0,
                    0.0,
                    0.0
                ],
                "label": "Tl",
                "properties": {}
            },
            {
                "species": [
                    {
                        "element": "Pd",
                        "occu": 1
                    }
                ],
                "abc": [
                    0.5,
                    0.0,
                    0.0
                ],
                "xyz": [
                    0.0,
                    2.377230775,
                    2.377230775
                ],
                "label": "Pd",
                "properties": {}
            },
            {
                "species": [
                    {
                        "element": "Pd",
                        "occu": 1
                    }
                ],
                "abc": [
                    0.0,
                    0.0,
                    0.5
                ],
                "xyz": [
                    2.377230775,
                    2.377230775,
                    0.0
                ],
                "label": "Pd",
                "properties": {}
            },
            {
                "species": [
                    {
                        "element": "Pd",
                        "occu": 1
                    }
                ],
                "abc": [
                    0.5,
                    0.0,
                    0.5
                ],
                "xyz": [
                    2.377230775,
                    4.75446155,
                    2.377230775
                ],
                "label": "Pd",
                "properties": {}
            },
            {
                "species": [
                    {
                        "element": "Pd",
                        "occu": 1
                    }
                ],
                "abc": [
                    0.0,
                    0.5,
                    0.5
                ],
                "xyz": [
                    4.75446155,
                    2.377230775,
                    2.377230775
                ],
                "label": "Pd",
                "properties": {}
            },
            {
                "species": [
                    {
                        "element": "Pd",
                        "occu": 1
                    }
                ],
                "abc": [
                    0.0,
                    0.5,
                    0.0
                ],
                "xyz": [
                    2.377230775,
                    0.0,
                    2.377230775
                ],
                "label": "Pd",
                "properties": {}
            },
            {
                "species": [
                    {
                        "element": "Pd",
                        "occu": 1
                    }
                ],
                "abc": [
                    0.5,
                    0.5,
                    0.0
                ],
                "xyz": [
                    2.377230775,
                    2.377230775,
                    4.75446155
                ],
                "label": "Pd",
                "properties": {}
            },
            {
                "species": [
                    {
                        "element": "O",
                        "occu": 1
                    }
                ],
                "abc": [
                    0.85769994,
                    0.85769994,
                    0.85769994
                ],
                "xyz": [
                    8.155802772334615,
                    8.155802772334615,
                    8.155802772334615
                ],
                "label": "O",
                "properties": {}
            },
            {
                "species": [
                    {
                        "element": "O",
                        "occu": 1
                    }
                ],
                "abc": [
                    0.57310082,
                    0.14230006,
                    0.14230006
                ],
                "xyz": [
                    1.353120327665386,
                    3.401345976796164,
                    3.401345976796164
                ],
                "label": "O",
                "properties": {}
            },
            {
                "species": [
                    {
                        "element": "O",
                        "occu": 1
                    }
                ],
                "abc": [
                    0.14230006,
                    0.14230006,
                    0.57310082
                ],
                "xyz": [
                    3.401345976796164,
                    3.401345976796164,
                    1.353120327665386
                ],
                "label": "O",
                "properties": {}
            },
            {
                "species": [
                    {
                        "element": "O",
                        "occu": 1
                    }
                ],
                "abc": [
                    0.14230006,
                    0.57310082,
                    0.14230006
                ],
                "xyz": [
                    3.401345976796164,
                    1.353120327665386,
                    3.401345976796164
                ],
                "label": "O",
                "properties": {}
            },
            {
                "species": [
                    {
                        "element": "O",
                        "occu": 1
                    }
                ],
                "abc": [
                    0.85769994,
                    0.85769994,
                    0.42689918
                ],
                "xyz": [
                    6.107577123203837,
                    6.107577123203837,
                    8.155802772334615
                ],
                "label": "O",
                "properties": {}
            },
            {
                "species": [
                    {
                        "element": "O",
                        "occu": 1
                    }
                ],
                "abc": [
                    0.85769994,
                    0.42689918,
                    0.85769994
                ],
                "xyz": [
                    6.107577123203837,
                    8.155802772334615,
                    6.107577123203837
                ],
                "label": "O",
                "properties": {}
            },
            {
                "species": [
                    {
                        "element": "O",
                        "occu": 1
                    }
                ],
                "abc": [
                    0.14230006,
                    0.14230006,
                    0.14230006
                ],
                "xyz": [
                    1.353120327665386,
                    1.353120327665386,
                    1.353120327665386
                ],
                "label": "O",
                "properties": {}
            },
            {
                "species": [
                    {
                        "element": "O",
                        "occu": 1
                    }
                ],
                "abc": [
                    0.42689918,
                    0.85769994,
                    0.85769994
                ],
                "xyz": [
                    8.155802772334615,
                    6.107577123203837,
                    6.107577123203837
                ],
                "label": "O",
                "properties": {}
            }
        ]
    },
    "spacegroup": {
        "source": "spglib",
        "symbol": "Fm-3m",
        "number": 225,
        "point_group": "m-3m",
        "crystal_system": "cubic",
        "hall": "-F 4 2 3"
    },
    "dielectric": {
        "epsilon_ionic": [
            [
                25.62853306,
                2e-08,
                2e-08
            ],
            [
                2e-08,
                25.62772956,
                2e-08
            ],
            [
                2e-08,
                2e-08,
                25.62858037
            ]
        ],
        "epsilon_ionic_avg": 25.62828099666667,
        "epsilon_ionic_eig": [
            25.628533059992055,
            25.62858037000893,
            25.627729559999032
        ],
        "epsilon_electronic": [
            [
                9.83933337,
                -0.0,
                -0.0
            ],
            [
                0.0,
                9.83933337,
                0.0
            ],
            [
                0.0,
                -0.0,
                9.83933337
            ]
        ],
        "epsilon_electronic_avg": 9.83933337,
        "epsilon_electronic_eig": [
            9.83933337,
            9.83933337,
            9.83933337
        ]
    },
    "phonon": {
        "lowest_freq": -0.06262075730126021,
        "frequency": [
            -0.06262075730126021,
            -0.06262075730126021,
            -0.06262075730126021,
            0.5318632552926472,
            0.5318632552926472,
            0.5318632552926472,
            3.223203625224602,
            3.223203625224602,
            3.223203625224602,
            3.6592225471842212,
            3.6592225471842212,
            3.6592225471842212,
            4.551148848247064,
            4.551148848247064,
            5.671194756042774,
            5.671194756042774,
            5.671194756042774,
            5.676012949559473,
            5.676012949559473,
            5.676012949559473,
            7.979612482222204,
            8.220257362708429,
            8.220257362708429,
            8.220257362708429,
            11.35608186945633,
            11.35608186945633,
            11.35608186945633,
            14.153026327371771,
            14.480111307287865,
            15.566348217212179,
            15.566348217212179,
            15.566348217212179,
            16.289053508038524,
            16.289053508038524,
            16.289053508038524,
            16.652784596183945,
            16.652784596183945,
            16.652784596183945,
            17.289486920554367,
            17.289486920554367,
            17.911800215830603,
            17.911800215830603,
            18.439667453464175,
            18.439667453464175,
            18.439667453464175,
            18.550342230152253,
            18.550342230152253,
            18.550342230152253
        ]
    },
    "born_effective_charge": {
        "avg_abs_trace": 1.34176375,
        "tensors": [
            [
                [
                    2.37398,
                    0.0,
                    -0.0
                ],
                [
                    -0.0,
                    2.37394,
                    -0.0
                ],
                [
                    -0.0,
                    0.0,
                    2.37398
                ]
            ],
            [
                [
                    3.50253,
                    0.0,
                    -0.0
                ],
                [
                    -0.0,
                    3.50253,
                    -0.0
                ],
                [
                    -0.0,
                    0.0,
                    3.50258
                ]
            ],
            [
                [
                    2.12775,
                    0.0,
                    -0.0
                ],
                [
                    -0.0,
                    0.15051,
                    1.96963
                ],
                [
                    -0.0,
                    1.96963,
                    0.15051
                ]
            ],
            [
                [
                    0.15053,
                    1.96959,
                    -0.0
                ],
                [
                    1.96963,
                    0.15051,
                    -0.0
                ],
                [
                    -0.0,
                    0.0,
                    2.12775
                ]
            ],
            [
                [
                    0.15053,
                    0.0,
                    -1.96959
                ],
                [
                    -0.0,
                    2.12778,
                    -0.0
                ],
                [
                    -1.96963,
                    0.0,
                    0.15051
                ]
            ],
            [
                [
                    2.12775,
                    0.0,
                    -0.0
                ],
                [
                    -0.0,
                    0.15051,
                    -1.96963
                ],
                [
                    -0.0,
                    -1.96963,
                    0.15051
                ]
            ],
            [
                [
                    0.15053,
                    0.0,
                    1.96959
                ],
                [
                    -0.0,
                    2.12778,
                    -0.0
                ],
                [
                    1.96963,
                    0.0,
                    0.15051
                ]
            ],
            [
                [
                    0.15053,
                    -1.96959,
                    -0.0
                ],
                [
                    -1.96963,
                    0.15051,
                    -0.0
                ],
                [
                    -0.0,
                    0.0,
                    2.12775
                ]
            ],
            [
                [
                    -1.34185,
                    0.41836,
                    0.41836
                ],
                [
                    0.41831,
                    -1.34184,
                    0.41831
                ],
                [
                    0.41833,
                    0.41833,
                    -1.34183
                ]
            ],
            [
                [
                    -1.34168,
                    -0.41863,
                    -0.41863
                ],
                [
                    -0.41831,
                    -1.34184,
                    0.41831
                ],
                [
                    -0.41833,
                    0.41833,
                    -1.34183
                ]
            ],
            [
                [
                    -1.34185,
                    0.41836,
                    -0.41836
                ],
                [
                    0.41831,
                    -1.34184,
                    -0.41831
                ],
                [
                    -0.41863,
                    -0.41863,
                    -1.3417
                ]
            ],
            [
                [
                    -1.34185,
                    -0.41836,
                    0.41836
                ],
                [
                    -0.41862,
                    -1.34169,
                    -0.41862
                ],
                [
                    0.41833,
                    -0.41833,
                    -1.34183
                ]
            ],
            [
                [
                    -1.34168,
                    0.41863,
                    -0.41863
                ],
                [
                    0.41862,
                    -1.34169,
                    -0.41862
                ],
                [
                    -0.41833,
                    -0.41833,
                    -1.34183
                ]
            ],
            [
                [
                    -1.34168,
                    -0.41863,
                    0.41863
                ],
                [
                    -0.41831,
                    -1.34184,
                    -0.41831
                ],
                [
                    0.41863,
                    -0.41863,
                    -1.3417
                ]
            ],
            [
                [
                    -1.34168,
                    0.41863,
                    0.41863
                ],
                [
                    0.41862,
                    -1.34169,
                    0.41862
                ],
                [
                    0.41863,
                    0.41863,
                    -1.3417
                ]
            ],
            [
                [
                    -1.34185,
                    -0.41836,
                    -0.41836
                ],
                [
                    -0.41862,
                    -1.34169,
                    0.41862
                ],
                [
                    -0.41863,
                    0.41863,
                    -1.3417
                ]
            ]
        ]
    },
    "band_gap": 1.7628000000000004,
    "is_direct": false,
    "formula": "TlPd3O4"
}