{
    "mp_id": "mp-559270",
    "nelements": 4,
    "nsites": 18,
    "elements": [
        "Ba",
        "O",
        "Rb",
        "Sb"
    ],
    "structure": {
        "@module": "pymatgen.core.structure",
        "@class": "Structure",
        "charge": null,
        "lattice": {
            "matrix": [
                [
                    -4.45452024,
                    4.45452024,
                    8.21959075
                ],
                [
                    4.45452024,
                    -4.45452024,
                    8.21959075
                ],
                [
                    4.45452024,
                    4.45452024,
                    -8.21959075
                ]
            ],
            "a": 10.35602111018633,
            "b": 10.35602111018633,
            "c": 10.35602111018633,
            "alpha": 129.04733852425593,
            "beta": 129.04733852425593,
            "gamma": 74.93441600477753,
            "volume": 652.3971561118897
        },
        "sites": [
            {
                "species": [
                    {
                        "element": "Rb",
                        "occu": 1
                    }
                ],
                "abc": [
                    0.5,
                    0.5,
                    0.0
                ],
                "xyz": [
                    0.0,
                    0.0,
                    8.21959075
                ],
                "label": "Rb",
                "properties": {}
            },
            {
                "species": [
                    {
                        "element": "Rb",
                        "occu": 1
                    }
                ],
                "abc": [
                    0.0,
                    0.0,
                    0.0
                ],
                "xyz": [
                    0.0,
                    0.0,
                    0.0
                ],
                "label": "Rb",
                "properties": {}
            },
            {
                "species": [
                    {
                        "element": "Ba",
                        "occu": 1
                    }
                ],
                "abc": [
                    0.18735312,
                    0.00404047,
                    0.5
                ],
                "xyz": [
                    1.4106902103269638,
                    3.0438300296730363,
                    -2.5366183930267074
                ],
                "label": "Ba",
                "properties": {}
            },
            {
                "species": [
                    {
                        "element": "Ba",
                        "occu": 1
                    }
                ],
                "abc": [
                    0.50404047,
                    0.68735312,
                    0.5
                ],
                "xyz": [
                    3.0438300296730363,
                    1.4106902103269636,
                    5.682972356973292
                ],
                "label": "Ba",
                "properties": {}
            },
            {
                "species": [
                    {
                        "element": "Ba",
                        "occu": 1
                    }
                ],
                "abc": [
                    0.49595953,
                    0.31264688,
                    0.5
                ],
                "xyz": [
                    1.410690210326964,
                    3.043830029673036,
                    2.536618393026707
                ],
                "label": "Ba",
                "properties": {}
            },
            {
                "species": [
                    {
                        "element": "Ba",
                        "occu": 1
                    }
                ],
                "abc": [
                    0.00404047,
                    0.50404047,
                    0.81668735
                ],
                "xyz": [
                    5.865210450326964,
                    1.410690210326964,
                    -2.5366183930267088
                ],
                "label": "Ba",
                "properties": {}
            },
            {
                "species": [
                    {
                        "element": "Ba",
                        "occu": 1
                    }
                ],
                "abc": [
                    0.81264688,
                    0.99595953,
                    0.5
                ],
                "xyz": [
                    3.0438300296730363,
                    1.4106902103269636,
                    10.756209143026709
                ],
                "label": "Ba",
                "properties": {}
            },
            {
                "species": [
                    {
                        "element": "Ba",
                        "occu": 1
                    }
                ],
                "abc": [
                    0.68735312,
                    0.18735312,
                    0.18331265
                ],
                "xyz": [
                    -1.4106902103269645,
                    3.0438300296730363,
                    5.682972356973293
                ],
                "label": "Ba",
                "properties": {}
            },
            {
                "species": [
                    {
                        "element": "Ba",
                        "occu": 1
                    }
                ],
                "abc": [
                    0.99595953,
                    0.49595953,
                    0.18331265
                ],
                "xyz": [
                    -1.410690210326964,
                    3.043830029673036,
                    10.756209143026707
                ],
                "label": "Ba",
                "properties": {}
            },
            {
                "species": [
                    {
                        "element": "Ba",
                        "occu": 1
                    }
                ],
                "abc": [
                    0.31264688,
                    0.81264688,
                    0.81668735
                ],
                "xyz": [
                    5.8652104503269635,
                    1.4106902103269645,
                    2.536618393026706
                ],
                "label": "Ba",
                "properties": {}
            },
            {
                "species": [
                    {
                        "element": "Sb",
                        "occu": 1
                    }
                ],
                "abc": [
                    0.1141583,
                    0.3858417,
                    0.5
                ],
                "xyz": [
                    3.437479324172016,
                    1.0170409158279838,
                    0.0
                ],
                "label": "Sb",
                "properties": {}
            },
            {
                "species": [
                    {
                        "element": "Sb",
                        "occu": 1
                    }
                ],
                "abc": [
                    0.6141583,
                    0.1141583,
                    0.7283166
                ],
                "xyz": [
                    1.0170409158279834,
                    5.471561155827985,
                    8.881784197001252e-16
                ],
                "label": "Sb",
                "properties": {}
            },
            {
                "species": [
                    {
                        "element": "Sb",
                        "occu": 1
                    }
                ],
                "abc": [
                    0.8858417,
                    0.6141583,
                    0.5
                ],
                "xyz": [
                    1.0170409158279847,
                    3.437479324172015,
                    8.219590749999998
                ],
                "label": "Sb",
                "properties": {}
            },
            {
                "species": [
                    {
                        "element": "Sb",
                        "occu": 1
                    }
                ],
                "abc": [
                    0.3858417,
                    0.8858417,
                    0.2716834
                ],
                "xyz": [
                    3.4374793241720156,
                    -1.0170409158279834,
                    8.21959075
                ],
                "label": "Sb",
                "properties": {}
            },
            {
                "species": [
                    {
                        "element": "Sb",
                        "occu": 1
                    }
                ],
                "abc": [
                    0.75,
                    0.75,
                    0.0
                ],
                "xyz": [
                    0.0,
                    0.0,
                    12.329386125
                ],
                "label": "Sb",
                "properties": {}
            },
            {
                "species": [
                    {
                        "element": "Sb",
                        "occu": 1
                    }
                ],
                "abc": [
                    0.25,
                    0.25,
                    0.0
                ],
                "xyz": [
                    0.0,
                    0.0,
                    4.109795375
                ],
                "label": "Sb",
                "properties": {}
            },
            {
                "species": [
                    {
                        "element": "O",
                        "occu": 1
                    }
                ],
                "abc": [
                    0.75,
                    0.25,
                    0.5
                ],
                "xyz": [
                    4.440892098500626e-16,
                    4.454520239999999,
                    4.109795375
                ],
                "label": "O",
                "properties": {}
            },
            {
                "species": [
                    {
                        "element": "O",
                        "occu": 1
                    }
                ],
                "abc": [
                    0.25,
                    0.75,
                    0.5
                ],
                "xyz": [
                    4.454520239999999,
                    4.440892098500626e-16,
                    4.109795375
                ],
                "label": "O",
                "properties": {}
            }
        ]
    },
    "spacegroup": {
        "source": "spglib",
        "symbol": "I4/mcm",
        "number": 140,
        "point_group": "4/mmm",
        "crystal_system": "tetragonal",
        "hall": "-I 4 2c"
    },
    "dielectric": {
        "epsilon_ionic": [
            [
                7.44921106,
                3e-08,
                -0.0
            ],
            [
                3e-08,
                7.44921744,
                -0.0
            ],
            [
                -0.0,
                -0.0,
                9.78386859
            ]
        ],
        "epsilon_ionic_avg": 8.227432363333333,
        "epsilon_ionic_eig": [
            7.449211059858937,
            7.449217440141062,
            9.78386859
        ],
        "epsilon_electronic": [
            [
                8.38126817,
                0.0,
                0.0
            ],
            [
                0.0,
                8.38126817,
                -0.0
            ],
            [
                0.0,
                -0.0,
                8.04429856
            ]
        ],
        "epsilon_electronic_avg": 8.268944966666666,
        "epsilon_electronic_eig": [
            8.38126817,
            8.38126817,
            8.04429856
        ]
    },
    "phonon": {
        "lowest_freq": -0.09486839466317204,
        "frequency": [
            -0.09486839466317204,
            -0.01099576063894346,
            -0.01099576063894346,
            1.2229121216369274,
            1.3643191719738472,
            1.3740115664649606,
            1.3740115664649606,
            1.3993059539891433,
            1.3993059539891433,
            1.440758767214217,
            1.6368950668227076,
            1.6964209106485417,
            1.7142557216575252,
            1.7142557216575252,
            1.7740411769574236,
            1.9299636456017253,
            1.9372432074064596,
            2.07132251831967,
            2.07132251831967,
            2.141064672754021,
            2.261809741457131,
            2.281205931750645,
            2.281205931750645,
            2.398128658971776,
            2.4155219353265984,
            2.4155219353265984,
            2.4227899156372135,
            2.4227899156372135,
            2.5635363823636297,
            2.5785889247811533,
            2.5785889247811533,
            2.7396776648450754,
            2.7396776648450754,
            2.8964673637319405,
            2.9502130376804416,
            2.9502130376804416,
            3.0799279522673575,
            3.0799279522673575,
            3.126668611381093,
            3.1611650593784844,
            3.2688344283794524,
            3.4161288714342555,
            3.4161288714342555,
            3.5403376043537387,
            3.8649141338524258,
            3.9965554829720786,
            4.976061289195219,
            5.005192280800198,
            8.276295740527194,
            8.276295740527194,
            8.368161382555828,
            8.368161382555828,
            8.895783812316335,
            9.151170809895328
        ]
    },
    "born_effective_charge": {
        "avg_abs_trace": 2.41133,
        "tensors": [
            [
                [
                    1.02313,
                    -0.3066,
                    0.0
                ],
                [
                    0.30662,
                    1.02313,
                    0.0
                ],
                [
                    -0.0,
                    -0.0,
                    1.10029
                ]
            ],
            [
                [
                    1.02313,
                    0.3066,
                    0.0
                ],
                [
                    -0.30662,
                    1.02313,
                    0.0
                ],
                [
                    -0.0,
                    -0.0,
                    1.10029
                ]
            ],
            [
                [
                    2.37162,
                    -0.38694,
                    0.32889
                ],
                [
                    -0.38652,
                    2.37156,
                    -0.32914
                ],
                [
                    0.11698,
                    -0.11698,
                    2.60839
                ]
            ],
            [
                [
                    2.37159,
                    -0.38633,
                    -0.3292
                ],
                [
                    -0.38675,
                    2.37166,
                    0.32895
                ],
                [
                    -0.11698,
                    0.11698,
                    2.60839
                ]
            ],
            [
                [
                    2.37162,
                    -0.38694,
                    -0.32889
                ],
                [
                    -0.38652,
                    2.37156,
                    0.32914
                ],
                [
                    -0.11703,
                    0.11703,
                    2.60838
                ]
            ],
            [
                [
                    2.37162,
                    0.38694,
                    0.32889
                ],
                [
                    0.38675,
                    2.37166,
                    0.32895
                ],
                [
                    0.11698,
                    0.11698,
                    2.60839
                ]
            ],
            [
                [
                    2.37159,
                    -0.38633,
                    0.3292
                ],
                [
                    -0.38675,
                    2.37166,
                    -0.32895
                ],
                [
                    0.11703,
                    -0.11703,
                    2.60838
                ]
            ],
            [
                [
                    2.37159,
                    0.38633,
                    -0.3292
                ],
                [
                    0.38652,
                    2.37156,
                    -0.32914
                ],
                [
                    -0.11698,
                    -0.11698,
                    2.60839
                ]
            ],
            [
                [
                    2.37159,
                    0.38633,
                    0.3292
                ],
                [
                    0.38652,
                    2.37156,
                    0.32914
                ],
                [
                    0.11703,
                    0.11703,
                    2.60838
                ]
            ],
            [
                [
                    2.37162,
                    0.38694,
                    -0.32889
                ],
                [
                    0.38675,
                    2.37166,
                    -0.32895
                ],
                [
                    -0.11703,
                    -0.11703,
                    2.60838
                ]
            ],
            [
                [
                    -2.17129,
                    -0.03496,
                    -0.0
                ],
                [
                    -0.0356,
                    -2.1717,
                    -0.0
                ],
                [
                    -5e-05,
                    5e-05,
                    -2.41682
                ]
            ],
            [
                [
                    -2.17239,
                    0.03622,
                    0.0
                ],
                [
                    0.0356,
                    -2.1717,
                    0.0
                ],
                [
                    5e-05,
                    5e-05,
                    -2.41682
                ]
            ],
            [
                [
                    -2.17239,
                    -0.03622,
                    -0.0
                ],
                [
                    -0.03558,
                    -2.17197,
                    0.0
                ],
                [
                    5e-05,
                    -5e-05,
                    -2.41682
                ]
            ],
            [
                [
                    -2.17129,
                    0.03496,
                    0.0
                ],
                [
                    0.03558,
                    -2.17197,
                    0.0
                ],
                [
                    -5e-05,
                    -5e-05,
                    -2.41682
                ]
            ],
            [
                [
                    -3.22841,
                    -0.0,
                    0.0
                ],
                [
                    -0.0,
                    -3.22842,
                    0.0
                ],
                [
                    -0.0,
                    -0.0,
                    -2.69105
                ]
            ],
            [
                [
                    -3.22841,
                    -0.0,
                    0.0
                ],
                [
                    -0.0,
                    -3.22842,
                    0.0
                ],
                [
                    -0.0,
                    -0.0,
                    -2.69105
                ]
            ],
            [
                [
                    -2.93747,
                    -0.0,
                    0.0
                ],
                [
                    -0.0,
                    -2.93748,
                    0.0
                ],
                [
                    -0.0,
                    -0.0,
                    -4.00914
                ]
            ],
            [
                [
                    -2.93747,
                    -0.0,
                    0.0
                ],
                [
                    -0.0,
                    -2.93748,
                    0.0
                ],
                [
                    -0.0,
                    -0.0,
                    -4.00914
                ]
            ]
        ]
    },
    "band_gap": 0.8527999999999998,
    "is_direct": false,
    "formula": "RbBa4Sb3O"
}