{
    "mp_id": "mp-545850",
    "nelements": 3,
    "nsites": 12,
    "elements": [
        "Bi",
        "O",
        "V"
    ],
    "structure": {
        "@module": "pymatgen.core.structure",
        "@class": "Structure",
        "charge": null,
        "lattice": {
            "matrix": [
                [
                    -3.65675545,
                    3.65675545,
                    3.21041248
                ],
                [
                    3.65675545,
                    -3.65675545,
                    3.21041248
                ],
                [
                    3.65675545,
                    3.65675545,
                    -3.21041248
                ]
            ],
            "a": 6.086909653834954,
            "b": 6.086909653834954,
            "c": 6.086909653834954,
            "alpha": 106.15168995720406,
            "beta": 106.15168995720406,
            "gamma": 116.33619077353852,
            "volume": 171.71675030693035
        },
        "sites": [
            {
                "species": [
                    {
                        "element": "V",
                        "occu": 1
                    }
                ],
                "abc": [
                    0.25,
                    0.75,
                    0.5
                ],
                "xyz": [
                    3.6567554499999995,
                    2.220446049250313e-16,
                    1.60520624
                ],
                "label": "V",
                "properties": {}
            },
            {
                "species": [
                    {
                        "element": "V",
                        "occu": 1
                    }
                ],
                "abc": [
                    0.5,
                    0.5,
                    0.0
                ],
                "xyz": [
                    0.0,
                    0.0,
                    3.21041248
                ],
                "label": "V",
                "properties": {}
            },
            {
                "species": [
                    {
                        "element": "Bi",
                        "occu": 1
                    }
                ],
                "abc": [
                    0.0,
                    0.0,
                    0.0
                ],
                "xyz": [
                    0.0,
                    0.0,
                    0.0
                ],
                "label": "Bi",
                "properties": {}
            },
            {
                "species": [
                    {
                        "element": "Bi",
                        "occu": 1
                    }
                ],
                "abc": [
                    0.75,
                    0.25,
                    0.5
                ],
                "xyz": [
                    2.220446049250313e-16,
                    3.6567554499999995,
                    1.60520624
                ],
                "label": "Bi",
                "properties": {}
            },
            {
                "species": [
                    {
                        "element": "O",
                        "occu": 1
                    }
                ],
                "abc": [
                    0.67248997,
                    0.49079278,
                    0.81830282
                ],
                "xyz": [
                    2.3279111070031835,
                    3.6567554865675547,
                    1.1075278726215263
                ],
                "label": "O",
                "properties": {}
            },
            {
                "species": [
                    {
                        "element": "O",
                        "occu": 1
                    }
                ],
                "abc": [
                    0.60418715,
                    0.92248997,
                    0.68169718
                ],
                "xyz": [
                    3.65675545,
                    1.328844306429262,
                    2.7127341447256508
                ],
                "label": "O",
                "properties": {}
            },
            {
                "species": [
                    {
                        "element": "O",
                        "occu": 1
                    }
                ],
                "abc": [
                    0.07751003,
                    0.39581285,
                    0.31830282
                ],
                "xyz": [
                    2.327911143570738,
                    -2.220446049250313e-16,
                    0.4976783352743488
                ],
                "label": "O",
                "properties": {}
            },
            {
                "species": [
                    {
                        "element": "O",
                        "occu": 1
                    }
                ],
                "abc": [
                    0.24079278,
                    0.92248997,
                    0.31830282
                ],
                "xyz": [
                    3.6567554865675542,
                    -1.3288443429968164,
                    2.7127341126215265
                ],
                "label": "O",
                "properties": {}
            },
            {
                "species": [
                    {
                        "element": "O",
                        "occu": 1
                    }
                ],
                "abc": [
                    0.50920722,
                    0.32751003,
                    0.18169718
                ],
                "xyz": [
                    -3.6567554317912254e-08,
                    1.3288443429968164,
                    2.1028846073784737
                ],
                "label": "O",
                "properties": {}
            },
            {
                "species": [
                    {
                        "element": "O",
                        "occu": 1
                    }
                ],
                "abc": [
                    0.67248997,
                    0.85418715,
                    0.18169718
                ],
                "xyz": [
                    1.3288443064292619,
                    2.220446049250313e-16,
                    4.3179403847256514
                ],
                "label": "O",
                "properties": {}
            },
            {
                "species": [
                    {
                        "element": "O",
                        "occu": 1
                    }
                ],
                "abc": [
                    0.14581285,
                    0.32751003,
                    0.81830282
                ],
                "xyz": [
                    3.6567554500000004,
                    2.327911143570738,
                    -1.1075279047256512
                ],
                "label": "O",
                "properties": {}
            },
            {
                "species": [
                    {
                        "element": "O",
                        "occu": 1
                    }
                ],
                "abc": [
                    0.07751003,
                    0.75920722,
                    0.68169718
                ],
                "xyz": [
                    4.985599792996816,
                    -3.6567554317912254e-08,
                    0.49767836737847304
                ],
                "label": "O",
                "properties": {}
            }
        ]
    },
    "spacegroup": {
        "source": "spglib",
        "symbol": "I4_1/amd",
        "number": 141,
        "point_group": "4/mmm",
        "crystal_system": "tetragonal",
        "hall": "I 4bw 2bw -1bw"
    },
    "dielectric": {
        "epsilon_ionic": [
            [
                23.73895297,
                -0.0,
                -3e-08
            ],
            [
                -0.0,
                23.73879751,
                -0.0
            ],
            [
                -3e-08,
                -0.0,
                33.00698878
            ]
        ],
        "epsilon_ionic_avg": 26.82824642,
        "epsilon_ionic_eig": [
            23.73895297,
            33.00698878,
            23.73879751
        ],
        "epsilon_electronic": [
            [
                5.26426129,
                0.0,
                0.0
            ],
            [
                0.0,
                5.26426129,
                0.0
            ],
            [
                0.0,
                0.0,
                7.03133986
            ]
        ],
        "epsilon_electronic_avg": 5.85328748,
        "epsilon_electronic_eig": [
            5.26426129,
            5.26426129,
            7.03133986
        ]
    },
    "phonon": {
        "lowest_freq": -0.04241839702787822,
        "frequency": [
            -0.04241839702787822,
            -0.027502571376369724,
            -0.027502571376369724,
            2.016091046332416,
            2.206805532098006,
            2.442452671466854,
            2.442452671466854,
            3.3772293512500666,
            3.3772293512500666,
            3.7767354481705513,
            3.7767354481705513,
            4.2566517460414275,
            4.32953258629345,
            5.753171513711028,
            5.753171513711028,
            6.155418498789904,
            6.301768135277384,
            6.301768135277384,
            6.98550481587005,
            7.740608227422952,
            7.740608227422952,
            9.028695884066819,
            10.025374900911851,
            10.025374900911851,
            10.732090413234731,
            11.832622842582113,
            12.00144068108684,
            12.544848297765029,
            21.980156143754343,
            21.980156143754343,
            22.394800224206016,
            22.394800224206016,
            23.062067165644326,
            23.948759681449786,
            24.44855547829063,
            24.936136166279983
        ]
    },
    "born_effective_charge": {
        "avg_abs_trace": 3.2809877777777774,
        "tensors": [
            [
                [
                    3.35278,
                    0.0,
                    -7e-05
                ],
                [
                    -0.0,
                    3.35274,
                    -0.00021
                ],
                [
                    -0.0,
                    -0.0,
                    5.45203
                ]
            ],
            [
                [
                    3.35278,
                    0.0,
                    7e-05
                ],
                [
                    -0.0,
                    3.35274,
                    0.00021
                ],
                [
                    -0.0,
                    -0.0,
                    5.45203
                ]
            ],
            [
                [
                    5.45201,
                    0.0,
                    1e-05
                ],
                [
                    -0.0,
                    5.45199,
                    -6e-05
                ],
                [
                    -0.0,
                    -0.0,
                    6.46736
                ]
            ],
            [
                [
                    5.45201,
                    0.0,
                    -1e-05
                ],
                [
                    -0.0,
                    5.45199,
                    6e-05
                ],
                [
                    -0.0,
                    -0.0,
                    6.46736
                ]
            ],
            [
                [
                    -3.79943,
                    0.0,
                    1.19359
                ],
                [
                    -9e-05,
                    -0.60299,
                    -1e-05
                ],
                [
                    1.7823,
                    -0.0,
                    -2.97977
                ]
            ],
            [
                [
                    -0.603,
                    0.00014,
                    -0.0001
                ],
                [
                    0.0,
                    -3.79946,
                    -1.19383
                ],
                [
                    0.0,
                    -1.7823,
                    -2.97977
                ]
            ],
            [
                [
                    -3.79943,
                    -0.0,
                    -1.19359
                ],
                [
                    -9e-05,
                    -0.60299,
                    1e-05
                ],
                [
                    -1.78211,
                    -0.0,
                    -2.97992
                ]
            ],
            [
                [
                    -0.603,
                    -0.00014,
                    -0.0001
                ],
                [
                    -0.0,
                    -3.79928,
                    1.19383
                ],
                [
                    -0.0,
                    1.7823,
                    -2.97977
                ]
            ],
            [
                [
                    -0.603,
                    0.00014,
                    0.0001
                ],
                [
                    -0.0,
                    -3.79946,
                    1.19383
                ],
                [
                    -0.0,
                    1.78211,
                    -2.97992
                ]
            ],
            [
                [
                    -3.79934,
                    -0.0,
                    -1.19406
                ],
                [
                    9e-05,
                    -0.60299,
                    -1e-05
                ],
                [
                    -1.7823,
                    0.0,
                    -2.97977
                ]
            ],
            [
                [
                    -0.603,
                    -0.00014,
                    0.0001
                ],
                [
                    0.0,
                    -3.79928,
                    -1.19383
                ],
                [
                    -0.0,
                    -1.78211,
                    -2.97992
                ]
            ],
            [
                [
                    -3.79934,
                    0.0,
                    1.19406
                ],
                [
                    9e-05,
                    -0.60299,
                    1e-05
                ],
                [
                    1.78211,
                    0.0,
                    -2.97992
                ]
            ]
        ]
    },
    "band_gap": 2.6757999999999997,
    "is_direct": false,
    "formula": "VBiO4"
}