{
    "mp_id": "mp-554381",
    "nelements": 4,
    "nsites": 20,
    "elements": [
        "Bi",
        "Ca",
        "O",
        "V"
    ],
    "structure": {
        "@module": "pymatgen.core.structure",
        "@class": "Structure",
        "charge": null,
        "lattice": {
            "matrix": [
                [
                    4.42961498,
                    -5.88383384,
                    0.0
                ],
                [
                    4.42961498,
                    5.88383384,
                    0.0
                ],
                [
                    0.0,
                    0.0,
                    5.534828
                ]
            ],
            "a": 7.364848235216361,
            "b": 7.364848235216361,
            "c": 5.534828,
            "alpha": 90.0,
            "beta": 90.0,
            "gamma": 106.05184001622365,
            "volume": 288.5097562758988
        },
        "sites": [
            {
                "species": [
                    {
                        "element": "Ca",
                        "occu": 1
                    }
                ],
                "abc": [
                    0.09103424,
                    0.30163078,
                    0.24133301
                ],
                "xyz": [
                    1.7393548547139996,
                    1.2391150486389135,
                    1.33573670107228
                ],
                "label": "Ca",
                "properties": {}
            },
            {
                "species": [
                    {
                        "element": "Ca",
                        "occu": 1
                    }
                ],
                "abc": [
                    0.90896576,
                    0.69836922,
                    0.74133301
                ],
                "xyz": [
                    7.119875105286001,
                    -1.2391150486389133,
                    4.10315070107228
                ],
                "label": "Ca",
                "properties": {}
            },
            {
                "species": [
                    {
                        "element": "Ca",
                        "occu": 1
                    }
                ],
                "abc": [
                    0.30163078,
                    0.09103424,
                    0.74133301
                ],
                "xyz": [
                    1.7393548547139996,
                    -1.2391150486389135,
                    4.10315070107228
                ],
                "label": "Ca",
                "properties": {}
            },
            {
                "species": [
                    {
                        "element": "Ca",
                        "occu": 1
                    }
                ],
                "abc": [
                    0.69836922,
                    0.90896576,
                    0.24133301
                ],
                "xyz": [
                    7.119875105286001,
                    1.2391150486389133,
                    1.33573670107228
                ],
                "label": "Ca",
                "properties": {}
            },
            {
                "species": [
                    {
                        "element": "V",
                        "occu": 1
                    }
                ],
                "abc": [
                    0.81529532,
                    0.18470468,
                    0.69488827
                ],
                "xyz": [
                    4.42961498,
                    -3.710290546819258,
                    3.84608705366756
                ],
                "label": "V",
                "properties": {}
            },
            {
                "species": [
                    {
                        "element": "V",
                        "occu": 1
                    }
                ],
                "abc": [
                    0.18470468,
                    0.81529532,
                    0.19488827
                ],
                "xyz": [
                    4.42961498,
                    3.710290546819258,
                    1.07867305366756
                ],
                "label": "V",
                "properties": {}
            },
            {
                "species": [
                    {
                        "element": "Bi",
                        "occu": 1
                    }
                ],
                "abc": [
                    0.59257657,
                    0.40742343,
                    0.26042428
                ],
                "xyz": [
                    4.42961498,
                    -1.0894103107142574,
                    1.4414035968238401
                ],
                "label": "Bi",
                "properties": {}
            },
            {
                "species": [
                    {
                        "element": "Bi",
                        "occu": 1
                    }
                ],
                "abc": [
                    0.40742343,
                    0.59257657,
                    0.76042428
                ],
                "xyz": [
                    4.42961498,
                    1.0894103107142574,
                    4.20881759682384
                ],
                "label": "Bi",
                "properties": {}
            },
            {
                "species": [
                    {
                        "element": "O",
                        "occu": 1
                    }
                ],
                "abc": [
                    0.66064266,
                    0.64850157,
                    0.99825083
                ],
                "xyz": [
                    5.799004892188566,
                    -0.07143615619648624,
                    5.52514664490724
                ],
                "label": "O",
                "properties": {}
            },
            {
                "species": [
                    {
                        "element": "O",
                        "occu": 1
                    }
                ],
                "abc": [
                    0.81228996,
                    0.18771004,
                    0.00824668
                ],
                "xyz": [
                    4.42961498,
                    -3.6749244690804934,
                    0.04564395537104
                ],
                "label": "O",
                "properties": {}
            },
            {
                "species": [
                    {
                        "element": "O",
                        "occu": 1
                    }
                ],
                "abc": [
                    0.90716989,
                    0.40545229,
                    0.56849856
                ],
                "xyz": [
                    5.814410871608257,
                    -2.952022993003584,
                    3.14654174784768
                ],
                "label": "O",
                "properties": {}
            },
            {
                "species": [
                    {
                        "element": "O",
                        "occu": 1
                    }
                ],
                "abc": [
                    0.09283011,
                    0.59454771,
                    0.06849856
                ],
                "xyz": [
                    3.0448190883917436,
                    2.9520229930035837,
                    0.37912774784768
                ],
                "label": "O",
                "properties": {}
            },
            {
                "species": [
                    {
                        "element": "O",
                        "occu": 1
                    }
                ],
                "abc": [
                    0.64850157,
                    0.66064266,
                    0.49825083
                ],
                "xyz": [
                    5.799004892188566,
                    0.07143615619648624,
                    2.75773264490724
                ],
                "label": "O",
                "properties": {}
            },
            {
                "species": [
                    {
                        "element": "O",
                        "occu": 1
                    }
                ],
                "abc": [
                    0.94990673,
                    0.05009327,
                    0.56827399
                ],
                "xyz": [
                    4.429614980000001,
                    -5.294352885635487,
                    3.1452987915237203
                ],
                "label": "O",
                "properties": {}
            },
            {
                "species": [
                    {
                        "element": "O",
                        "occu": 1
                    }
                ],
                "abc": [
                    0.35149843,
                    0.33935734,
                    0.99825083
                ],
                "xyz": [
                    3.0602250678114347,
                    -0.07143615619648536,
                    5.52514664490724
                ],
                "label": "O",
                "properties": {}
            },
            {
                "species": [
                    {
                        "element": "O",
                        "occu": 1
                    }
                ],
                "abc": [
                    0.33935734,
                    0.35149843,
                    0.49825083
                ],
                "xyz": [
                    3.0602250678114347,
                    0.07143615619648536,
                    2.75773264490724
                ],
                "label": "O",
                "properties": {}
            },
            {
                "species": [
                    {
                        "element": "O",
                        "occu": 1
                    }
                ],
                "abc": [
                    0.05009327,
                    0.94990673,
                    0.06827399
                ],
                "xyz": [
                    4.429614980000001,
                    5.294352885635487,
                    0.37788479152372006
                ],
                "label": "O",
                "properties": {}
            },
            {
                "species": [
                    {
                        "element": "O",
                        "occu": 1
                    }
                ],
                "abc": [
                    0.18771004,
                    0.81228996,
                    0.50824668
                ],
                "xyz": [
                    4.42961498,
                    3.6749244690804934,
                    2.8130579553710398
                ],
                "label": "O",
                "properties": {}
            },
            {
                "species": [
                    {
                        "element": "O",
                        "occu": 1
                    }
                ],
                "abc": [
                    0.40545229,
                    0.90716989,
                    0.06849856
                ],
                "xyz": [
                    5.814410871608257,
                    2.952022993003584,
                    0.37912774784768
                ],
                "label": "O",
                "properties": {}
            },
            {
                "species": [
                    {
                        "element": "O",
                        "occu": 1
                    }
                ],
                "abc": [
                    0.59454771,
                    0.09283011,
                    0.56849856
                ],
                "xyz": [
                    3.0448190883917436,
                    -2.9520229930035837,
                    3.14654174784768
                ],
                "label": "O",
                "properties": {}
            }
        ]
    },
    "spacegroup": {
        "source": "spglib",
        "symbol": "Cmc2_1",
        "number": 36,
        "point_group": "mm2",
        "crystal_system": "orthorhombic",
        "hall": "C 2c -2"
    },
    "dielectric": {
        "epsilon_ionic": [
            [
                6.86732447,
                0.0,
                1.132e-05
            ],
            [
                0.0,
                8.40845486,
                -7.24e-06
            ],
            [
                1.132e-05,
                -7.24e-06,
                11.66114459
            ]
        ],
        "epsilon_ionic_avg": 8.978974639999999,
        "epsilon_ionic_eig": [
            6.867324469973271,
            11.661144590042841,
            8.408454859983882
        ],
        "epsilon_electronic": [
            [
                3.92172739,
                0.0,
                0.0
            ],
            [
                0.0,
                4.11639532,
                0.0
            ],
            [
                0.0,
                0.0,
                4.73138824
            ]
        ],
        "epsilon_electronic_avg": 4.25650365,
        "epsilon_electronic_eig": [
            3.92172739,
            4.11639532,
            4.73138824
        ]
    },
    "phonon": {
        "lowest_freq": -0.09559285472630935,
        "frequency": [
            -0.09559285472630935,
            -0.03336173733913159,
            -0.03245398618651391,
            2.1488534434257773,
            2.4776883485176713,
            3.1295492096477244,
            3.131407432510639,
            3.761420569357853,
            3.7968544276657084,
            3.896753855421594,
            3.9621174721366508,
            4.005613136039212,
            4.115193829239884,
            4.325469287444515,
            4.389688016479636,
            4.657107195296978,
            4.716620660128494,
            5.058888264705578,
            5.206459469599147,
            5.261588374103665,
            5.507097365561929,
            6.251378236377188,
            6.415944395490464,
            6.772869086124416,
            6.837504484564101,
            7.049406546229024,
            7.429803823183845,
            7.594856389353995,
            7.910789902175151,
            8.196329441251784,
            8.471443138364632,
            8.833115493777996,
            8.998224488263382,
            9.188571764378159,
            9.631737817037079,
            9.79556662024349,
            10.001756156969376,
            10.106394448433115,
            10.116836703262393,
            10.356258071731547,
            10.503727479180867,
            10.941365003639369,
            11.324742700669702,
            11.41175468258077,
            11.896201141475705,
            11.966823611480162,
            13.151557951733702,
            13.808295868482794,
            13.815972651130815,
            14.930142763386309,
            15.415192842830873,
            16.817265056460258,
            23.210157650768465,
            23.23117572174116,
            23.519577502088246,
            23.533956188294223,
            23.95286867842089,
            24.430270079113768,
            24.70941239379384,
            24.86467345366717
        ]
    },
    "born_effective_charge": {
        "avg_abs_trace": 2.4416480000000003,
        "tensors": [
            [
                [
                    2.8412,
                    0.42767,
                    0.29958
                ],
                [
                    0.20141,
                    2.45878,
                    0.07146
                ],
                [
                    -0.09441,
                    -0.123,
                    2.53835
                ]
            ],
            [
                [
                    2.84121,
                    0.42766,
                    -0.29959
                ],
                [
                    0.20139,
                    2.45878,
                    -0.07148
                ],
                [
                    0.09441,
                    0.123,
                    2.53835
                ]
            ],
            [
                [
                    2.8412,
                    -0.42767,
                    0.29958
                ],
                [
                    -0.20139,
                    2.45878,
                    -0.07148
                ],
                [
                    -0.09441,
                    0.123,
                    2.53835
                ]
            ],
            [
                [
                    2.84121,
                    -0.42766,
                    -0.29959
                ],
                [
                    -0.20141,
                    2.45878,
                    0.07146
                ],
                [
                    0.09441,
                    -0.123,
                    2.53835
                ]
            ],
            [
                [
                    3.06754,
                    0.0,
                    -0.0
                ],
                [
                    -0.0,
                    3.04954,
                    0.16922
                ],
                [
                    -0.0,
                    0.05551,
                    3.81041
                ]
            ],
            [
                [
                    3.06754,
                    -0.0,
                    -0.0
                ],
                [
                    -0.0,
                    3.04954,
                    -0.16924
                ],
                [
                    -0.0,
                    -0.05551,
                    3.81041
                ]
            ],
            [
                [
                    2.69465,
                    0.0,
                    0.0
                ],
                [
                    -0.0,
                    3.31241,
                    -0.31616
                ],
                [
                    -0.0,
                    -0.0446,
                    5.0135
                ]
            ],
            [
                [
                    2.69465,
                    -0.0,
                    0.0
                ],
                [
                    -0.0,
                    3.3124,
                    0.31614
                ],
                [
                    -0.0,
                    0.0446,
                    5.0135
                ]
            ],
            [
                [
                    -2.14082,
                    -0.10585,
                    -0.05525
                ],
                [
                    -0.06725,
                    -1.81661,
                    0.35282
                ],
                [
                    -0.04144,
                    0.98199,
                    -2.93723
                ]
            ],
            [
                [
                    -1.26534,
                    0.0,
                    0.0
                ],
                [
                    -0.0,
                    -1.42405,
                    -0.05425
                ],
                [
                    -0.0,
                    0.00535,
                    -3.83813
                ]
            ],
            [
                [
                    -2.29867,
                    0.55691,
                    -0.511
                ],
                [
                    0.73203,
                    -1.68509,
                    0.35594
                ],
                [
                    -0.64707,
                    0.3084,
                    -1.40051
                ]
            ],
            [
                [
                    -2.29867,
                    0.5569,
                    0.511
                ],
                [
                    0.73203,
                    -1.68511,
                    -0.35592
                ],
                [
                    0.64707,
                    -0.3084,
                    -1.40051
                ]
            ],
            [
                [
                    -2.14082,
                    0.10585,
                    -0.05525
                ],
                [
                    0.06723,
                    -1.81661,
                    -0.35282
                ],
                [
                    -0.04144,
                    -0.98199,
                    -2.93723
                ]
            ],
            [
                [
                    -1.30029,
                    0.0,
                    -1e-05
                ],
                [
                    -0.0,
                    -2.85205,
                    -0.69768
                ],
                [
                    -0.0,
                    -0.60608,
                    -1.387
                ]
            ],
            [
                [
                    -2.14082,
                    0.10585,
                    0.05526
                ],
                [
                    0.06725,
                    -1.81661,
                    0.35282
                ],
                [
                    0.04144,
                    0.98199,
                    -2.93723
                ]
            ],
            [
                [
                    -2.14082,
                    -0.10585,
                    0.05526
                ],
                [
                    -0.06723,
                    -1.81661,
                    -0.35282
                ],
                [
                    0.04144,
                    -0.98199,
                    -2.93723
                ]
            ],
            [
                [
                    -1.30029,
                    -0.0,
                    -1e-05
                ],
                [
                    -0.0,
                    -2.85207,
                    0.69768
                ],
                [
                    -0.0,
                    0.60608,
                    -1.387
                ]
            ],
            [
                [
                    -1.26534,
                    -0.0,
                    0.0
                ],
                [
                    -0.0,
                    -1.424,
                    0.05429
                ],
                [
                    -0.0,
                    -0.00535,
                    -3.83813
                ]
            ],
            [
                [
                    -2.29867,
                    -0.55691,
                    -0.511
                ],
                [
                    -0.73203,
                    -1.68511,
                    -0.35592
                ],
                [
                    -0.64707,
                    -0.3084,
                    -1.40051
                ]
            ],
            [
                [
                    -2.29867,
                    -0.5569,
                    0.511
                ],
                [
                    -0.73203,
                    -1.68509,
                    0.35594
                ],
                [
                    0.64707,
                    0.3084,
                    -1.40051
                ]
            ]
        ]
    },
    "band_gap": 2.9296,
    "is_direct": false,
    "formula": "Ca2VBiO6"
}