{
    "mp_id": "mp-560261",
    "nelements": 3,
    "nsites": 24,
    "elements": [
        "Bi",
        "O",
        "Ta"
    ],
    "structure": {
        "@module": "pymatgen.core.structure",
        "@class": "Structure",
        "charge": null,
        "lattice": {
            "matrix": [
                [
                    5.56611617,
                    -0.00066717,
                    0.00029326
                ],
                [
                    0.47651659,
                    7.68662094,
                    -0.00066201
                ],
                [
                    0.01963092,
                    1.62324184,
                    7.56557211
                ]
            ],
            "a": 5.566116217709859,
            "b": 7.701377147890431,
            "c": 7.7377762177357186,
            "alpha": 77.9097354942886,
            "beta": 89.8531282624575,
            "gamma": 86.45947112980838,
            "volume": 323.69873562867747
        },
        "sites": [
            {
                "species": [
                    {
                        "element": "Ta",
                        "occu": 1
                    }
                ],
                "abc": [
                    0.25355135,
                    0.82725168,
                    0.80016808
                ],
                "xyz": [
                    1.8212034543507343,
                    7.657467230772467,
                    6.053256016944473
                ],
                "label": "Ta",
                "properties": {}
            },
            {
                "species": [
                    {
                        "element": "Ta",
                        "occu": 1
                    }
                ],
                "abc": [
                    0.72211774,
                    0.16196082,
                    0.6995725
                ],
                "xyz": [
                    4.110301498699559,
                    2.380025007292375,
                    5.292770743488959
                ],
                "label": "Ta",
                "properties": {}
            },
            {
                "species": [
                    {
                        "element": "Ta",
                        "occu": 1
                    }
                ],
                "abc": [
                    0.27788226,
                    0.83803918,
                    0.3004275
                ],
                "xyz": [
                    1.9519621813004404,
                    6.929170602707625,
                    2.2724326165110407
                ],
                "label": "Ta",
                "properties": {}
            },
            {
                "species": [
                    {
                        "element": "Ta",
                        "occu": 1
                    }
                ],
                "abc": [
                    0.74644865,
                    0.17274832,
                    0.19983192
                ],
                "xyz": [
                    4.241060225649266,
                    1.6517283792275332,
                    1.5119473430555268
                ],
                "label": "Ta",
                "properties": {}
            },
            {
                "species": [
                    {
                        "element": "Bi",
                        "occu": 1
                    }
                ],
                "abc": [
                    0.73567416,
                    0.62162769,
                    0.6157835
                ],
                "xyz": [
                    4.403152141541364,
                    5.77729114069014,
                    4.65855869345529
                ],
                "label": "Bi",
                "properties": {}
            },
            {
                "species": [
                    {
                        "element": "Bi",
                        "occu": 1
                    }
                ],
                "abc": [
                    0.79266331,
                    0.67052573,
                    0.10710639
                ],
                "xyz": [
                    4.733675298497162,
                    5.327407849425612,
                    0.8101096786905562
                ],
                "label": "Bi",
                "properties": {}
            },
            {
                "species": [
                    {
                        "element": "Bi",
                        "occu": 1
                    }
                ],
                "abc": [
                    0.26432584,
                    0.37837231,
                    0.3842165
                ],
                "xyz": [
                    1.6591115384586355,
                    3.5319044693098585,
                    2.9066446665447105
                ],
                "label": "Bi",
                "properties": {}
            },
            {
                "species": [
                    {
                        "element": "Bi",
                        "occu": 1
                    }
                ],
                "abc": [
                    0.20733669,
                    0.32947427,
                    0.89289361
                ],
                "xyz": [
                    1.3285883815028379,
                    3.981787760574389,
                    6.755093681309443
                ],
                "label": "Bi",
                "properties": {}
            },
            {
                "species": [
                    {
                        "element": "O",
                        "occu": 1
                    }
                ],
                "abc": [
                    0.41731034,
                    0.05194882,
                    0.78206978
                ],
                "xyz": [
                    2.362905055228719,
                    1.6685208593763483,
                    5.916893305433817
                ],
                "label": "O",
                "properties": {}
            },
            {
                "species": [
                    {
                        "element": "O",
                        "occu": 1
                    }
                ],
                "abc": [
                    0.50807793,
                    0.60744982,
                    0.32076
                ],
                "xyz": [
                    3.1237775125148417,
                    5.1895685846570725,
                    2.4264797710820134
                ],
                "label": "O",
                "properties": {}
            },
            {
                "species": [
                    {
                        "element": "O",
                        "occu": 1
                    }
                ],
                "abc": [
                    0.96200613,
                    0.34622979,
                    0.63549167
                ],
                "xyz": [
                    5.532097400853774,
                    3.692251999951523,
                    4.807910965023729
                ],
                "label": "O",
                "properties": {}
            },
            {
                "species": [
                    {
                        "element": "O",
                        "occu": 1
                    }
                ],
                "abc": [
                    0.35218366,
                    0.81959373,
                    0.55286887
                ],
                "xyz": [
                    2.3616984986982232,
                    7.197111242755785,
                    4.1823300054941495
                ],
                "label": "O",
                "properties": {}
            },
            {
                "species": [
                    {
                        "element": "O",
                        "occu": 1
                    }
                ],
                "abc": [
                    0.64781634,
                    0.18040627,
                    0.44713113
                ],
                "xyz": [
                    3.7005651813017764,
                    2.1120843672442153,
                    3.38287335450585
                ],
                "label": "O",
                "properties": {}
            },
            {
                "species": [
                    {
                        "element": "O",
                        "occu": 1
                    }
                ],
                "abc": [
                    0.18702181,
                    0.82888995,
                    0.05082312
                ],
                "xyz": [
                    1.4369626378458087,
                    6.453736286107916,
                    0.3840120917953843
                ],
                "label": "O",
                "properties": {}
            },
            {
                "species": [
                    {
                        "element": "O",
                        "occu": 1
                    }
                ],
                "abc": [
                    0.94456847,
                    0.39138262,
                    0.17229253
                ],
                "xyz": [
                    5.447460406879853,
                    3.287452098113388,
                    1.3035094646705843
                ],
                "label": "O",
                "properties": {}
            },
            {
                "species": [
                    {
                        "element": "O",
                        "occu": 1
                    }
                ],
                "abc": [
                    0.45817597,
                    0.32992984,
                    0.13245128
                ],
                "xyz": [
                    2.7100778581000577,
                    2.7507403950704994,
                    1.0019856577333845
                ],
                "label": "O",
                "properties": {}
            },
            {
                "species": [
                    {
                        "element": "O",
                        "occu": 1
                    }
                ],
                "abc": [
                    0.58268966,
                    0.94805118,
                    0.21793022
                ],
                "xyz": [
                    3.6993586247712806,
                    7.640674750623652,
                    1.6483100545661842
                ],
                "label": "O",
                "properties": {}
            },
            {
                "species": [
                    {
                        "element": "O",
                        "occu": 1
                    }
                ],
                "abc": [
                    0.06504375,
                    0.04749765,
                    0.28734012
                ],
                "xyz": [
                    0.39031523775196136,
                    0.8314755409467243,
                    2.1738800287669013
                ],
                "label": "O",
                "properties": {}
            },
            {
                "species": [
                    {
                        "element": "O",
                        "occu": 1
                    }
                ],
                "abc": [
                    0.49192207,
                    0.39255018,
                    0.67924
                ],
                "xyz": [
                    2.9384861674851583,
                    4.119627025342927,
                    5.138723588917986
                ],
                "label": "O",
                "properties": {}
            },
            {
                "species": [
                    {
                        "element": "O",
                        "occu": 1
                    }
                ],
                "abc": [
                    0.81297819,
                    0.17111005,
                    0.94917688
                ],
                "xyz": [
                    4.625301042154192,
                    2.8554593238920836,
                    7.181191268204615
                ],
                "label": "O",
                "properties": {}
            },
            {
                "species": [
                    {
                        "element": "O",
                        "occu": 1
                    }
                ],
                "abc": [
                    0.05543153,
                    0.60861738,
                    0.82770747
                ],
                "xyz": [
                    0.6148032731201467,
                    6.021743511886612,
                    6.261693895329415
                ],
                "label": "O",
                "properties": {}
            },
            {
                "species": [
                    {
                        "element": "O",
                        "occu": 1
                    }
                ],
                "abc": [
                    0.93495625,
                    0.95250235,
                    0.71265988
                ],
                "xyz": [
                    5.6719484422480395,
                    8.477720069053275,
                    5.391323331233098
                ],
                "label": "O",
                "properties": {}
            },
            {
                "species": [
                    {
                        "element": "O",
                        "occu": 1
                    }
                ],
                "abc": [
                    0.03799387,
                    0.65377021,
                    0.36450833
                ],
                "xyz": [
                    0.5301662791462254,
                    5.616943610048477,
                    2.75729239497627
                ],
                "label": "O",
                "properties": {}
            },
            {
                "species": [
                    {
                        "element": "O",
                        "occu": 1
                    }
                ],
                "abc": [
                    0.54182403,
                    0.67007016,
                    0.86754872
                ],
                "xyz": [
                    3.3521858218999423,
                    6.5584552149295,
                    6.563217702266616
                ],
                "label": "O",
                "properties": {}
            }
        ]
    },
    "spacegroup": {
        "source": "spglib",
        "symbol": "P-1",
        "number": 2,
        "point_group": "-1",
        "crystal_system": "triclinic",
        "hall": "-P 1"
    },
    "dielectric": {
        "epsilon_ionic": [
            [
                45.48194309,
                -4.91101504,
                2.48089831
            ],
            [
                -4.91101504,
                26.37349672,
                6.76008085
            ],
            [
                2.48089831,
                6.76008085,
                35.99532282
            ]
        ],
        "epsilon_ionic_avg": 35.95025421,
        "epsilon_ionic_eig": [
            21.61868922598761,
            46.750731480316084,
            39.4813419236963
        ],
        "epsilon_electronic": [
            [
                6.41506019,
                -0.11755625,
                0.04465647
            ],
            [
                -0.11754334,
                5.88646435,
                0.11081968
            ],
            [
                0.04464634,
                0.11081307,
                6.08851749
            ]
        ],
        "epsilon_electronic_avg": 6.13001401,
        "epsilon_electronic_eig": [
            6.4413197693075945,
            5.811409064618996,
            6.1373131960734115
        ]
    },
    "phonon": {
        "lowest_freq": -0.0434802876168554,
        "frequency": [
            -0.0434802876168554,
            -0.022661525218582317,
            -0.01703169417334193,
            1.5344566062090148,
            1.7252415075328729,
            2.182299741726623,
            2.2062687524924387,
            2.2903527518834204,
            2.4639878244531697,
            2.5648080593387323,
            2.605847095390708,
            2.8296652464540686,
            3.1624604915603975,
            3.242302210988663,
            3.3430085324390473,
            3.6323220015172066,
            4.136386507144842,
            4.157181068448759,
            4.359869230737141,
            4.5346964448348,
            4.6903266231834335,
            5.086187038804344,
            5.110995329613925,
            5.67429368953294,
            5.877935487814634,
            6.113537180825329,
            6.219374412690785,
            6.573504815649884,
            6.816880551821587,
            7.398159350262622,
            7.536705564061049,
            7.696178624333002,
            7.7994573446759405,
            7.906784462819713,
            8.265143553833191,
            8.332130760047516,
            8.378892260814423,
            8.5552081723759,
            8.632738920972525,
            9.356079489825937,
            9.378941970791287,
            9.472407142418165,
            9.726888931547053,
            9.747937999920078,
            10.192922818673672,
            10.401099889167009,
            10.519976248214418,
            10.817537474878916,
            11.76091738439901,
            11.859134236079376,
            12.192734733799696,
            12.478085355501891,
            12.664349639009938,
            12.940541885373456,
            13.897998144941898,
            13.918655954574398,
            14.563785704969463,
            15.206119317650035,
            15.38514854397107,
            16.035224332440325,
            16.265531938672567,
            16.3487463484937,
            17.464520947084463,
            17.570379396401258,
            18.034599818612932,
            18.51392770662123,
            18.811875925124113,
            18.879301279995495,
            19.661833819123995,
            24.20857611368432,
            24.86427748073352,
            25.796751562041692
        ]
    },
    "born_effective_charge": {
        "avg_abs_trace": 4.1296349999999995,
        "tensors": [
            [
                [
                    7.96318,
                    0.20685,
                    -0.17965
                ],
                [
                    -0.14858,
                    7.85217,
                    -0.09502
                ],
                [
                    -0.76601,
                    0.20289,
                    7.65609
                ]
            ],
            [
                [
                    7.14694,
                    -0.34463,
                    0.36361
                ],
                [
                    0.37509,
                    7.25018,
                    -0.08012
                ],
                [
                    0.95943,
                    -0.07505,
                    7.73764
                ]
            ],
            [
                [
                    7.14695,
                    -0.34463,
                    0.36366
                ],
                [
                    0.37517,
                    7.25021,
                    -0.07973
                ],
                [
                    0.9598,
                    -0.07527,
                    7.73752
                ]
            ],
            [
                [
                    7.96315,
                    0.20694,
                    -0.17955
                ],
                [
                    -0.14856,
                    7.85208,
                    -0.09541
                ],
                [
                    -0.76601,
                    0.20307,
                    7.65643
                ]
            ],
            [
                [
                    5.40282,
                    -0.38475,
                    -0.01683
                ],
                [
                    -0.40081,
                    4.27183,
                    0.63193
                ],
                [
                    0.01787,
                    0.35432,
                    4.67478
                ]
            ],
            [
                [
                    5.24766,
                    -0.19183,
                    0.24488
                ],
                [
                    -0.31828,
                    4.06695,
                    0.13882
                ],
                [
                    0.08086,
                    0.2522,
                    5.06329
                ]
            ],
            [
                [
                    5.40276,
                    -0.38479,
                    -0.01684
                ],
                [
                    -0.40088,
                    4.2719,
                    0.63195
                ],
                [
                    0.01752,
                    0.3544,
                    4.67467
                ]
            ],
            [
                [
                    5.24764,
                    -0.19178,
                    0.24489
                ],
                [
                    -0.31828,
                    4.06698,
                    0.13891
                ],
                [
                    0.08095,
                    0.25245,
                    5.06301
                ]
            ],
            [
                [
                    -3.80573,
                    -1.65024,
                    0.86917
                ],
                [
                    -1.67255,
                    -4.18443,
                    0.23529
                ],
                [
                    0.78302,
                    0.30432,
                    -1.57645
                ]
            ],
            [
                [
                    -3.31592,
                    -0.04609,
                    0.77506
                ],
                [
                    -0.077,
                    -2.876,
                    0.24937
                ],
                [
                    0.40184,
                    0.25323,
                    -2.494
                ]
            ],
            [
                [
                    -3.55658,
                    -0.40149,
                    0.21551
                ],
                [
                    -0.66214,
                    -2.9576,
                    0.27191
                ],
                [
                    0.30512,
                    0.183,
                    -2.67912
                ]
            ],
            [
                [
                    -2.13945,
                    0.46836,
                    -0.42416
                ],
                [
                    0.6354,
                    -1.70913,
                    -0.91875
                ],
                [
                    -0.19277,
                    -0.69631,
                    -5.89816
                ]
            ],
            [
                [
                    -2.13938,
                    0.46817,
                    -0.42462
                ],
                [
                    0.63557,
                    -1.70911,
                    -0.91824
                ],
                [
                    -0.19229,
                    -0.69698,
                    -5.89799
                ]
            ],
            [
                [
                    -2.35204,
                    -0.41057,
                    0.36368
                ],
                [
                    -0.50703,
                    -1.66382,
                    -0.86397
                ],
                [
                    0.11277,
                    -0.9006,
                    -5.5719
                ]
            ],
            [
                [
                    -2.96807,
                    -0.40392,
                    -0.42036
                ],
                [
                    -0.49921,
                    -3.89115,
                    0.28528
                ],
                [
                    -0.29216,
                    0.01859,
                    -2.09236
                ]
            ],
            [
                [
                    -3.7414,
                    1.12312,
                    -0.95141
                ],
                [
                    1.12742,
                    -2.07708,
                    -0.33579
                ],
                [
                    -0.71644,
                    -0.39489,
                    -3.22886
                ]
            ],
            [
                [
                    -3.80593,
                    -1.65031,
                    0.86918
                ],
                [
                    -1.67248,
                    -4.18456,
                    0.23528
                ],
                [
                    0.7831,
                    0.30403,
                    -1.5765
                ]
            ],
            [
                [
                    -3.88138,
                    2.03534,
                    -0.83957
                ],
                [
                    2.14749,
                    -4.08163,
                    0.4803
                ],
                [
                    -0.69342,
                    0.49943,
                    -1.59115
                ]
            ],
            [
                [
                    -3.31586,
                    -0.04613,
                    0.77505
                ],
                [
                    -0.07691,
                    -2.87611,
                    0.24944
                ],
                [
                    0.40182,
                    0.25311,
                    -2.49423
                ]
            ],
            [
                [
                    -2.352,
                    -0.41055,
                    0.36406
                ],
                [
                    -0.50707,
                    -1.66388,
                    -0.8635
                ],
                [
                    0.11254,
                    -0.90131,
                    -5.57179
                ]
            ],
            [
                [
                    -2.96811,
                    -0.40397,
                    -0.42034
                ],
                [
                    -0.49921,
                    -3.89112,
                    0.28528
                ],
                [
                    -0.29244,
                    0.01864,
                    -2.09217
                ]
            ],
            [
                [
                    -3.88145,
                    2.03536,
                    -0.83954
                ],
                [
                    2.14746,
                    -4.08179,
                    0.4803
                ],
                [
                    -0.6934,
                    0.49919,
                    -1.59106
                ]
            ],
            [
                [
                    -3.55647,
                    -0.40152,
                    0.21539
                ],
                [
                    -0.66218,
                    -2.95774,
                    0.27201
                ],
                [
                    0.30437,
                    0.18261,
                    -2.67897
                ]
            ],
            [
                [
                    -3.74136,
                    1.12307,
                    -0.95127
                ],
                [
                    1.12755,
                    -2.07717,
                    -0.33557
                ],
                [
                    -0.71606,
                    -0.39506,
                    -3.22873
                ]
            ]
        ]
    },
    "band_gap": 3.018,
    "is_direct": true,
    "formula": "TaBiO4"
}