{
    "mp_id": "mp-558369",
    "nelements": 4,
    "nsites": 16,
    "elements": [
        "K",
        "Li",
        "O",
        "V"
    ],
    "structure": {
        "@module": "pymatgen.core.structure",
        "@class": "Structure",
        "charge": null,
        "lattice": {
            "matrix": [
                [
                    4.18241106,
                    -3.8720447,
                    0.00051804
                ],
                [
                    4.18241106,
                    3.8720447,
                    0.00051804
                ],
                [
                    -0.04623091,
                    0.0,
                    7.54969605
                ]
            ],
            "a": 5.6995870641629685,
            "b": 5.6995870641629685,
            "c": 7.549837597221878,
            "alpha": 90.25224793128427,
            "beta": 90.25224793128427,
            "gamma": 85.58656941329572,
            "volume": 244.52702777003
        },
        "sites": [
            {
                "species": [
                    {
                        "element": "K",
                        "occu": 1
                    }
                ],
                "abc": [
                    0.70231985,
                    0.70231985,
                    0.17559945
                ],
                "xyz": [
                    5.866662494226081,
                    0.0,
                    1.3264501335973604
                ],
                "label": "K",
                "properties": {}
            },
            {
                "species": [
                    {
                        "element": "K",
                        "occu": 1
                    }
                ],
                "abc": [
                    0.21792618,
                    0.78207382,
                    0.5
                ],
                "xyz": [
                    4.159295605,
                    2.1844048794795086,
                    3.775366065
                ],
                "label": "K",
                "properties": {}
            },
            {
                "species": [
                    {
                        "element": "K",
                        "occu": 1
                    }
                ],
                "abc": [
                    0.29768015,
                    0.29768015,
                    0.82440055
                ],
                "xyz": [
                    2.451928715773917,
                    0.0,
                    6.22428199640264
                ],
                "label": "K",
                "properties": {}
            },
            {
                "species": [
                    {
                        "element": "K",
                        "occu": 1
                    }
                ],
                "abc": [
                    0.78207382,
                    0.21792618,
                    0.5
                ],
                "xyz": [
                    4.159295605,
                    -2.1844048794795086,
                    3.775366065
                ],
                "label": "K",
                "properties": {}
            },
            {
                "species": [
                    {
                        "element": "Li",
                        "occu": 1
                    }
                ],
                "abc": [
                    0.177593,
                    0.822407,
                    0.0
                ],
                "xyz": [
                    4.18241106,
                    2.4967486311858,
                    0.00051804
                ],
                "label": "Li",
                "properties": {}
            },
            {
                "species": [
                    {
                        "element": "Li",
                        "occu": 1
                    }
                ],
                "abc": [
                    0.822407,
                    0.177593,
                    0.0
                ],
                "xyz": [
                    4.18241106,
                    -2.4967486311858,
                    0.00051804
                ],
                "label": "Li",
                "properties": {}
            },
            {
                "species": [
                    {
                        "element": "V",
                        "occu": 1
                    }
                ],
                "abc": [
                    0.71317184,
                    0.71317184,
                    0.75596763
                ],
                "xyz": [
                    5.930606511127657,
                    0.0,
                    5.7080647332188486
                ],
                "label": "V",
                "properties": {}
            },
            {
                "species": [
                    {
                        "element": "V",
                        "occu": 1
                    }
                ],
                "abc": [
                    0.28682816,
                    0.28682816,
                    0.24403237
                ],
                "xyz": [
                    2.387984698872342,
                    0.0,
                    1.8426673967811513
                ],
                "label": "V",
                "properties": {}
            },
            {
                "species": [
                    {
                        "element": "O",
                        "occu": 1
                    }
                ],
                "abc": [
                    0.56926698,
                    0.20748755,
                    0.17182081
                ],
                "xyz": [
                    3.240763304773864,
                    -1.400826124500521,
                    1.2975972804815215
                ],
                "label": "O",
                "properties": {}
            },
            {
                "species": [
                    {
                        "element": "O",
                        "occu": 1
                    }
                ],
                "abc": [
                    0.09579841,
                    0.09579841,
                    0.15449246
                ],
                "xyz": [
                    0.7941943320148905,
                    0.0,
                    1.1664703698334158
                ],
                "label": "O",
                "properties": {}
            },
            {
                "species": [
                    {
                        "element": "O",
                        "occu": 1
                    }
                ],
                "abc": [
                    0.20748755,
                    0.56926698,
                    0.17182081
                ],
                "xyz": [
                    3.240763304773864,
                    1.400826124500521,
                    1.2975972804815215
                ],
                "label": "O",
                "properties": {}
            },
            {
                "species": [
                    {
                        "element": "O",
                        "occu": 1
                    }
                ],
                "abc": [
                    0.90420159,
                    0.90420159,
                    0.84550754
                ],
                "xyz": [
                    7.524396877985109,
                    0.0,
                    6.384261760166583
                ],
                "label": "O",
                "properties": {}
            },
            {
                "species": [
                    {
                        "element": "O",
                        "occu": 1
                    }
                ],
                "abc": [
                    0.27691454,
                    0.27691454,
                    0.47257708
                ],
                "xyz": [
                    2.2944932010880814,
                    0.0,
                    3.568100219813137
                ],
                "label": "O",
                "properties": {}
            },
            {
                "species": [
                    {
                        "element": "O",
                        "occu": 1
                    }
                ],
                "abc": [
                    0.79251245,
                    0.43073302,
                    0.82817919
                ],
                "xyz": [
                    5.077827905226135,
                    -1.4008261245005211,
                    6.253134849518478
                ],
                "label": "O",
                "properties": {}
            },
            {
                "species": [
                    {
                        "element": "O",
                        "occu": 1
                    }
                ],
                "abc": [
                    0.43073302,
                    0.79251245,
                    0.82817919
                ],
                "xyz": [
                    5.077827905226135,
                    1.4008261245005211,
                    6.253134849518478
                ],
                "label": "O",
                "properties": {}
            },
            {
                "species": [
                    {
                        "element": "O",
                        "occu": 1
                    }
                ],
                "abc": [
                    0.72308546,
                    0.72308546,
                    0.52742292
                ],
                "xyz": [
                    6.024098008911918,
                    0.0,
                    3.982631910186863
                ],
                "label": "O",
                "properties": {}
            }
        ]
    },
    "spacegroup": {
        "source": "spglib",
        "symbol": "C2/m",
        "number": 12,
        "point_group": "2/m",
        "crystal_system": "monoclinic",
        "hall": "-C 2y"
    },
    "dielectric": {
        "epsilon_ionic": [
            [
                6.75752543,
                1.1e-07,
                -0.11912048
            ],
            [
                1.1e-07,
                5.46078992,
                1e-07
            ],
            [
                -0.11912048,
                1e-07,
                3.73875157
            ]
        ],
        "epsilon_ionic_avg": 5.3190223066666675,
        "epsilon_ionic_eig": [
            6.762218614528383,
            3.7340583854716205,
            5.460789920000001
        ],
        "epsilon_electronic": [
            [
                2.96410503,
                0.0,
                0.01918216
            ],
            [
                0.0,
                2.85154059,
                0.0
            ],
            [
                0.01918283,
                0.0,
                2.96226729
            ]
        ],
        "epsilon_electronic_avg": 2.9259709700000003,
        "epsilon_electronic_eig": [
            2.9823906500059776,
            2.9439816699940224,
            2.85154059
        ]
    },
    "phonon": {
        "lowest_freq": -0.091426150218258,
        "frequency": [
            -0.091426150218258,
            -0.03528782618665651,
            -0.03243562337402645,
            1.503373920293672,
            1.8872921744004818,
            2.4534305525726743,
            2.569027904772244,
            2.8667994945478434,
            2.971879665716255,
            3.1215825745200285,
            3.1994124052915818,
            3.44388361593577,
            3.6447953087541527,
            4.027349281204941,
            4.081527279769475,
            4.219654588304989,
            4.2383001757457555,
            4.281312072841419,
            4.798145284501878,
            4.816731011048995,
            4.876373543308469,
            5.008107884768563,
            5.201234135831078,
            5.882986318907565,
            8.961543719188835,
            9.22519999914432,
            9.441805059102009,
            9.629717189202044,
            9.723950929037162,
            10.361089827317057,
            10.445280392104772,
            10.58487016067124,
            10.752801804438159,
            11.17671126442875,
            11.205339188697724,
            11.750950237297493,
            13.213157276257725,
            13.242341104619499,
            14.005838416437133,
            14.060060321679579,
            23.529762092006113,
            24.050292679809402,
            24.26498216530008,
            24.35652381756774,
            24.376531927164482,
            24.64801995725283,
            24.882432624817344,
            25.67213147661525
        ]
    },
    "born_effective_charge": {
        "avg_abs_trace": 1.6226066666666665,
        "tensors": [
            [
                [
                    1.20226,
                    0.0,
                    -0.00628
                ],
                [
                    -4e-05,
                    1.13828,
                    6e-05
                ],
                [
                    0.03856,
                    0.0,
                    1.40624
                ]
            ],
            [
                [
                    1.20039,
                    -3e-05,
                    0.05846
                ],
                [
                    0.0,
                    1.16057,
                    0.0
                ],
                [
                    0.01275,
                    3e-05,
                    1.04896
                ]
            ],
            [
                [
                    1.20221,
                    0.0,
                    -0.00629
                ],
                [
                    4e-05,
                    1.13828,
                    -6e-05
                ],
                [
                    0.03847,
                    0.0,
                    1.40629
                ]
            ],
            [
                [
                    1.20039,
                    3e-05,
                    0.05846
                ],
                [
                    -0.0,
                    1.16063,
                    0.0
                ],
                [
                    0.01275,
                    -3e-05,
                    1.04896
                ]
            ],
            [
                [
                    1.22261,
                    0.0,
                    0.08206
                ],
                [
                    0.0,
                    1.28371,
                    0.0
                ],
                [
                    0.00442,
                    -1e-05,
                    1.27492
                ]
            ],
            [
                [
                    1.22261,
                    -0.0,
                    0.08206
                ],
                [
                    0.0,
                    1.28378,
                    0.0
                ],
                [
                    0.00442,
                    1e-05,
                    1.27492
                ]
            ],
            [
                [
                    2.95162,
                    0.0,
                    -0.00784
                ],
                [
                    -0.00019,
                    2.658,
                    0.00051
                ],
                [
                    -0.005,
                    0.0,
                    2.92392
                ]
            ],
            [
                [
                    2.95185,
                    0.0,
                    -0.00786
                ],
                [
                    0.00019,
                    2.658,
                    -0.00051
                ],
                [
                    -0.0052,
                    0.0,
                    2.92314
                ]
            ],
            [
                [
                    -1.4352,
                    0.84892,
                    0.3466
                ],
                [
                    0.71787,
                    -2.12791,
                    -0.4854
                ],
                [
                    0.29686,
                    -0.47546,
                    -1.21366
                ]
            ],
            [
                [
                    -2.74675,
                    0.0,
                    -0.90683
                ],
                [
                    0.0003,
                    -1.06903,
                    -4e-05
                ],
                [
                    -0.71317,
                    0.0,
                    -1.36812
                ]
            ],
            [
                [
                    -1.4352,
                    -0.84892,
                    0.3466
                ],
                [
                    -0.71864,
                    -2.12929,
                    0.48541
                ],
                [
                    0.29686,
                    0.47546,
                    -1.21366
                ]
            ],
            [
                [
                    -2.7458,
                    0.0,
                    -0.90657
                ],
                [
                    -0.0003,
                    -1.06903,
                    4e-05
                ],
                [
                    -0.71352,
                    0.0,
                    -1.36839
                ]
            ],
            [
                [
                    -0.96063,
                    0.0,
                    0.08706
                ],
                [
                    -0.00028,
                    -0.9144,
                    0.0025
                ],
                [
                    0.06911,
                    0.0,
                    -2.85758
                ]
            ],
            [
                [
                    -1.43497,
                    -0.84832,
                    0.34659
                ],
                [
                    -0.71787,
                    -2.12791,
                    0.4854
                ],
                [
                    0.29691,
                    0.47546,
                    -1.21371
                ]
            ],
            [
                [
                    -1.43497,
                    0.84832,
                    0.34659
                ],
                [
                    0.71864,
                    -2.12929,
                    -0.48541
                ],
                [
                    0.29691,
                    -0.47546,
                    -1.21371
                ]
            ],
            [
                [
                    -0.96043,
                    0.0,
                    0.08719
                ],
                [
                    0.00028,
                    -0.9144,
                    -0.0025
                ],
                [
                    0.06888,
                    0.0,
                    -2.85854
                ]
            ]
        ]
    },
    "band_gap": 4.0816,
    "is_direct": false,
    "formula": "K2LiVO4"
}