{
    "mp_id": "mp-556653",
    "nelements": 4,
    "nsites": 20,
    "elements": [
        "As",
        "Bi",
        "Cd",
        "O"
    ],
    "structure": {
        "@module": "pymatgen.core.structure",
        "@class": "Structure",
        "charge": null,
        "lattice": {
            "matrix": [
                [
                    4.34353793,
                    -5.73747492,
                    0.0
                ],
                [
                    4.34353793,
                    5.73747492,
                    0.0
                ],
                [
                    0.0,
                    0.0,
                    5.63181017
                ]
            ],
            "a": 7.196175387452539,
            "b": 7.196175387452539,
            "c": 5.63181017,
            "alpha": 90.0,
            "beta": 90.0,
            "gamma": 105.74513647029211,
            "volume": 280.70000597130934
        },
        "sites": [
            {
                "species": [
                    {
                        "element": "Cd",
                        "occu": 1
                    }
                ],
                "abc": [
                    0.18526435,
                    0.40752111,
                    0.63097399
                ],
                "xyz": [
                    2.574786129862498,
                    1.2751925863004594,
                    3.553525733887478
                ],
                "label": "Cd",
                "properties": {}
            },
            {
                "species": [
                    {
                        "element": "Cd",
                        "occu": 1
                    }
                ],
                "abc": [
                    0.59247889,
                    0.81473565,
                    0.63097399
                ],
                "xyz": [
                    6.112289730137503,
                    1.2751925863004598,
                    3.553525733887478
                ],
                "label": "Cd",
                "properties": {}
            },
            {
                "species": [
                    {
                        "element": "Cd",
                        "occu": 1
                    }
                ],
                "abc": [
                    0.81473565,
                    0.59247889,
                    0.13097399
                ],
                "xyz": [
                    6.112289730137503,
                    -1.2751925863004598,
                    0.7376206488874784
                ],
                "label": "Cd",
                "properties": {}
            },
            {
                "species": [
                    {
                        "element": "Cd",
                        "occu": 1
                    }
                ],
                "abc": [
                    0.40752111,
                    0.18526435,
                    0.13097399
                ],
                "xyz": [
                    2.574786129862498,
                    -1.2751925863004594,
                    0.7376206488874784
                ],
                "label": "Cd",
                "properties": {}
            },
            {
                "species": [
                    {
                        "element": "Bi",
                        "occu": 1
                    }
                ],
                "abc": [
                    0.09655402,
                    0.90344598,
                    0.62282248
                ],
                "xyz": [
                    4.34353793,
                    4.629522383649643,
                    3.5076179769686213
                ],
                "label": "Bi",
                "properties": {}
            },
            {
                "species": [
                    {
                        "element": "Bi",
                        "occu": 1
                    }
                ],
                "abc": [
                    0.90344598,
                    0.09655402,
                    0.12282248
                ],
                "xyz": [
                    4.34353793,
                    -4.629522383649643,
                    0.6917128919686215
                ],
                "label": "Bi",
                "properties": {}
            },
            {
                "species": [
                    {
                        "element": "As",
                        "occu": 1
                    }
                ],
                "abc": [
                    0.66648083,
                    0.33351917,
                    0.64556372
                ],
                "xyz": [
                    4.34353793,
                    -1.9103591735715675,
                    3.6356923236790317
                ],
                "label": "As",
                "properties": {}
            },
            {
                "species": [
                    {
                        "element": "As",
                        "occu": 1
                    }
                ],
                "abc": [
                    0.33351917,
                    0.66648083,
                    0.14556372
                ],
                "xyz": [
                    4.34353793,
                    1.9103591735715675,
                    0.8197872386790324
                ],
                "label": "As",
                "properties": {}
            },
            {
                "species": [
                    {
                        "element": "O",
                        "occu": 1
                    }
                ],
                "abc": [
                    0.1528698,
                    0.15805667,
                    0.37851809
                ],
                "xyz": [
                    1.3505209158860072,
                    0.029759536538300435,
                    2.131742028790975
                ],
                "label": "O",
                "properties": {}
            },
            {
                "species": [
                    {
                        "element": "O",
                        "occu": 1
                    }
                ],
                "abc": [
                    0.56551265,
                    0.11496023,
                    0.7838265
                ],
                "xyz": [
                    2.9556597646163385,
                    -2.585033209895306,
                    4.414362054215505
                ],
                "label": "O",
                "properties": {}
            },
            {
                "species": [
                    {
                        "element": "O",
                        "occu": 1
                    }
                ],
                "abc": [
                    0.15805667,
                    0.1528698,
                    0.87851809
                ],
                "xyz": [
                    1.3505209158860072,
                    -0.029759536538300435,
                    4.947647113790975
                ],
                "label": "O",
                "properties": {}
            },
            {
                "species": [
                    {
                        "element": "O",
                        "occu": 1
                    }
                ],
                "abc": [
                    0.84194333,
                    0.8471302,
                    0.37851809
                ],
                "xyz": [
                    7.336554944113994,
                    0.029759536538301212,
                    2.131742028790975
                ],
                "label": "O",
                "properties": {}
            },
            {
                "species": [
                    {
                        "element": "O",
                        "occu": 1
                    }
                ],
                "abc": [
                    0.8471302,
                    0.84194333,
                    0.87851809
                ],
                "xyz": [
                    7.336554944113994,
                    -0.029759536538301212,
                    4.947647113790975
                ],
                "label": "O",
                "properties": {}
            },
            {
                "species": [
                    {
                        "element": "O",
                        "occu": 1
                    }
                ],
                "abc": [
                    0.48042331,
                    0.51957669,
                    0.18628363
                ],
                "xyz": [
                    4.34353793,
                    0.22464153578322943,
                    1.049114041938517
                ],
                "label": "O",
                "properties": {}
            },
            {
                "species": [
                    {
                        "element": "O",
                        "occu": 1
                    }
                ],
                "abc": [
                    0.7026253,
                    0.2973747,
                    0.347283
                ],
                "xyz": [
                    4.34353793,
                    -2.325115153814952,
                    1.9558319312681098
                ],
                "label": "O",
                "properties": {}
            },
            {
                "species": [
                    {
                        "element": "O",
                        "occu": 1
                    }
                ],
                "abc": [
                    0.43448735,
                    0.88503977,
                    0.2838265
                ],
                "xyz": [
                    5.731416095383661,
                    2.5850332098953066,
                    1.5984569692155048
                ],
                "label": "O",
                "properties": {}
            },
            {
                "species": [
                    {
                        "element": "O",
                        "occu": 1
                    }
                ],
                "abc": [
                    0.11496023,
                    0.56551265,
                    0.2838265
                ],
                "xyz": [
                    2.9556597646163385,
                    2.585033209895306,
                    1.5984569692155048
                ],
                "label": "O",
                "properties": {}
            },
            {
                "species": [
                    {
                        "element": "O",
                        "occu": 1
                    }
                ],
                "abc": [
                    0.51957669,
                    0.48042331,
                    0.68628363
                ],
                "xyz": [
                    4.34353793,
                    -0.22464153578322943,
                    3.8650191269385172
                ],
                "label": "O",
                "properties": {}
            },
            {
                "species": [
                    {
                        "element": "O",
                        "occu": 1
                    }
                ],
                "abc": [
                    0.2973747,
                    0.7026253,
                    0.847283
                ],
                "xyz": [
                    4.34353793,
                    2.325115153814952,
                    4.771737016268109
                ],
                "label": "O",
                "properties": {}
            },
            {
                "species": [
                    {
                        "element": "O",
                        "occu": 1
                    }
                ],
                "abc": [
                    0.88503977,
                    0.43448735,
                    0.7838265
                ],
                "xyz": [
                    5.731416095383661,
                    -2.5850332098953066,
                    4.414362054215505
                ],
                "label": "O",
                "properties": {}
            }
        ]
    },
    "spacegroup": {
        "source": "spglib",
        "symbol": "Cmc2_1",
        "number": 36,
        "point_group": "mm2",
        "crystal_system": "orthorhombic",
        "hall": "C 2c -2"
    },
    "dielectric": {
        "epsilon_ionic": [
            [
                9.47176886,
                -0.0,
                3.505e-05
            ],
            [
                -0.0,
                8.05116799,
                -1.072e-05
            ],
            [
                3.505e-05,
                -1.072e-05,
                15.91994151
            ]
        ],
        "epsilon_ionic_avg": 11.14762612,
        "epsilon_ionic_eig": [
            9.471768859809481,
            15.919941510205128,
            8.051167989985395
        ],
        "epsilon_electronic": [
            [
                4.5240647,
                0.0,
                0.0
            ],
            [
                0.0,
                4.71243453,
                0.0
            ],
            [
                0.0,
                0.0,
                5.05120375
            ]
        ],
        "epsilon_electronic_avg": 4.762567659999999,
        "epsilon_electronic_eig": [
            4.5240647,
            4.71243453,
            5.05120375
        ]
    },
    "phonon": {
        "lowest_freq": -0.07079988694000651,
        "frequency": [
            -0.07079988694000651,
            -0.046354028010941455,
            -0.01803735460833847,
            1.4612795106262135,
            1.6547553153750438,
            1.8737882740272427,
            2.174920869312508,
            2.362083779554827,
            2.3774024961872393,
            2.387479248281867,
            2.8757840829179475,
            3.0760482400110014,
            3.1411693380952586,
            3.343514930366107,
            3.4166070314280432,
            3.4832416559634,
            3.705360728196178,
            3.9643642873514136,
            4.416413564731046,
            4.557388006722712,
            4.667216467344877,
            4.965980502170055,
            5.1700456935113825,
            5.37787438434585,
            5.598669018672584,
            5.681193785113058,
            5.683997855694906,
            7.560907592335351,
            7.617483701459971,
            7.733408381647657,
            7.971375972728181,
            8.617771151894733,
            9.06121853499481,
            9.091057127099848,
            9.154001926051146,
            9.930694957001252,
            10.165909893743335,
            10.24496810323136,
            10.331117058819268,
            10.8914029312249,
            10.979050777926252,
            11.17407108090317,
            11.691884116105863,
            11.862155741427937,
            12.070298959701347,
            12.179844939024107,
            13.073510948187353,
            13.803191163747812,
            13.85949187012475,
            14.712633272571772,
            15.150202438787304,
            16.235882379402263,
            21.595632772427276,
            21.928974202623667,
            21.97080841923885,
            22.503638055519687,
            22.779897233063416,
            22.838919734628632,
            24.259496865912137,
            24.42375596412868
        ]
    },
    "born_effective_charge": {
        "avg_abs_trace": 2.4922774999999993,
        "tensors": [
            [
                [
                    2.64023,
                    -0.24533,
                    0.09534
                ],
                [
                    0.07219,
                    2.58681,
                    0.00226
                ],
                [
                    -0.02449,
                    0.00403,
                    2.43826
                ]
            ],
            [
                [
                    2.64023,
                    0.24533,
                    -0.09533
                ],
                [
                    -0.07219,
                    2.58681,
                    0.00226
                ],
                [
                    0.02449,
                    0.00403,
                    2.43826
                ]
            ],
            [
                [
                    2.64023,
                    -0.24533,
                    -0.09533
                ],
                [
                    0.0722,
                    2.58681,
                    -0.00226
                ],
                [
                    0.02449,
                    -0.00403,
                    2.43826
                ]
            ],
            [
                [
                    2.64023,
                    0.24533,
                    0.09534
                ],
                [
                    -0.0722,
                    2.58681,
                    -0.00226
                ],
                [
                    -0.02449,
                    -0.00403,
                    2.43826
                ]
            ],
            [
                [
                    3.16025,
                    -2e-05,
                    -0.0
                ],
                [
                    -0.0,
                    3.41698,
                    -0.18683
                ],
                [
                    0.0,
                    -0.30276,
                    4.91644
                ]
            ],
            [
                [
                    3.16025,
                    2e-05,
                    -0.0
                ],
                [
                    -0.0,
                    3.41699,
                    0.18682
                ],
                [
                    0.0,
                    0.30276,
                    4.91644
                ]
            ],
            [
                [
                    3.32712,
                    0.0,
                    0.0
                ],
                [
                    -0.0,
                    3.31237,
                    -0.12533
                ],
                [
                    0.0,
                    -0.315,
                    3.92039
                ]
            ],
            [
                [
                    3.32712,
                    -0.0,
                    0.0
                ],
                [
                    -0.0,
                    3.31237,
                    0.12532
                ],
                [
                    0.0,
                    0.315,
                    3.92039
                ]
            ],
            [
                [
                    -2.13837,
                    0.07258,
                    0.04259
                ],
                [
                    0.07036,
                    -1.74454,
                    0.51588
                ],
                [
                    -0.04064,
                    0.96861,
                    -2.89383
                ]
            ],
            [
                [
                    -2.12998,
                    0.23826,
                    -0.35255
                ],
                [
                    0.3343,
                    -1.91781,
                    0.09847
                ],
                [
                    -0.30149,
                    0.12453,
                    -1.86921
                ]
            ],
            [
                [
                    -2.13837,
                    -0.07258,
                    0.04259
                ],
                [
                    -0.07038,
                    -1.74455,
                    -0.51588
                ],
                [
                    -0.04064,
                    -0.96861,
                    -2.89383
                ]
            ],
            [
                [
                    -2.13836,
                    -0.07258,
                    -0.04258
                ],
                [
                    -0.07036,
                    -1.74454,
                    0.51588
                ],
                [
                    0.04064,
                    0.96861,
                    -2.89383
                ]
            ],
            [
                [
                    -2.13836,
                    0.07258,
                    -0.04258
                ],
                [
                    0.07038,
                    -1.74455,
                    -0.51588
                ],
                [
                    0.04064,
                    -0.96861,
                    -2.89383
                ]
            ],
            [
                [
                    -1.70654,
                    -2e-05,
                    -0.0
                ],
                [
                    -0.0,
                    -2.75764,
                    0.09007
                ],
                [
                    0.0,
                    0.00735,
                    -1.29109
                ]
            ],
            [
                [
                    -1.52459,
                    -1e-05,
                    -0.0
                ],
                [
                    -0.0,
                    -1.8206,
                    -0.34725
                ],
                [
                    0.0,
                    -0.3865,
                    -2.89619
                ]
            ],
            [
                [
                    -2.12999,
                    0.23827,
                    0.35254
                ],
                [
                    0.33431,
                    -1.91782,
                    -0.09848
                ],
                [
                    0.30149,
                    -0.12453,
                    -1.86921
                ]
            ],
            [
                [
                    -2.12998,
                    -0.23826,
                    -0.35255
                ],
                [
                    -0.33431,
                    -1.91782,
                    -0.09848
                ],
                [
                    -0.30149,
                    -0.12453,
                    -1.86921
                ]
            ],
            [
                [
                    -1.70654,
                    2e-05,
                    -0.0
                ],
                [
                    -0.0,
                    -2.75767,
                    -0.09007
                ],
                [
                    0.0,
                    -0.00735,
                    -1.29109
                ]
            ],
            [
                [
                    -1.52459,
                    1e-05,
                    -0.0
                ],
                [
                    -0.0,
                    -1.82061,
                    0.34728
                ],
                [
                    0.0,
                    0.3865,
                    -2.89619
                ]
            ],
            [
                [
                    -2.12999,
                    -0.23827,
                    0.35254
                ],
                [
                    -0.3343,
                    -1.91781,
                    0.09847
                ],
                [
                    0.30149,
                    0.12453,
                    -1.86921
                ]
            ]
        ]
    },
    "band_gap": 1.8489,
    "is_direct": false,
    "formula": "Cd2BiAsO6"
}