{
    "mp_id": "mp-558629",
    "nelements": 4,
    "nsites": 24,
    "elements": [
        "Ba",
        "O",
        "Si",
        "Zn"
    ],
    "structure": {
        "@module": "pymatgen.core.structure",
        "@class": "Structure",
        "charge": null,
        "lattice": {
            "matrix": [
                [
                    4.19728239,
                    -5.36464618,
                    0.00013357
                ],
                [
                    4.19728239,
                    5.36464618,
                    0.00013357
                ],
                [
                    -2.99822308,
                    0.0,
                    7.83622372
                ]
            ],
            "a": 6.811505568949764,
            "b": 6.811505568949764,
            "c": 8.390217150189578,
            "alpha": 102.7196598078149,
            "beta": 102.7196598078149,
            "gamma": 103.92096983351573,
            "volume": 352.89977614361726
        },
        "sites": [
            {
                "species": [
                    {
                        "element": "Ba",
                        "occu": 1
                    }
                ],
                "abc": [
                    0.815656,
                    0.72999816,
                    0.52597194
                ],
                "xyz": [
                    4.910565776857866,
                    -0.45952400414305217,
                    4.121840245308568
                ],
                "label": "Ba",
                "properties": {}
            },
            {
                "species": [
                    {
                        "element": "Ba",
                        "occu": 1
                    }
                ],
                "abc": [
                    0.72999816,
                    0.815656,
                    0.02597194
                ],
                "xyz": [
                    6.4096773168578665,
                    0.45952400414305217,
                    0.20372838530856796
                ],
                "label": "Ba",
                "properties": {}
            },
            {
                "species": [
                    {
                        "element": "Ba",
                        "occu": 1
                    }
                ],
                "abc": [
                    0.27000184,
                    0.184344,
                    0.97402806
                ],
                "xyz": [
                    -1.0133356168578669,
                    -0.45952400414305106,
                    7.6327624746914315
                ],
                "label": "Ba",
                "properties": {}
            },
            {
                "species": [
                    {
                        "element": "Ba",
                        "occu": 1
                    }
                ],
                "abc": [
                    0.184344,
                    0.27000184,
                    0.47402806
                ],
                "xyz": [
                    0.485775923142133,
                    0.45952400414305106,
                    3.7146506146914318
                ],
                "label": "Ba",
                "properties": {}
            },
            {
                "species": [
                    {
                        "element": "Zn",
                        "occu": 1
                    }
                ],
                "abc": [
                    0.74226996,
                    0.25773004,
                    0.75
                ],
                "xyz": [
                    1.9486150799999997,
                    -2.599385230885506,
                    5.87730136
                ],
                "label": "Zn",
                "properties": {}
            },
            {
                "species": [
                    {
                        "element": "Zn",
                        "occu": 1
                    }
                ],
                "abc": [
                    0.25773004,
                    0.74226996,
                    0.25
                ],
                "xyz": [
                    3.44772662,
                    2.599385230885506,
                    1.9591895
                ],
                "label": "Zn",
                "properties": {}
            },
            {
                "species": [
                    {
                        "element": "Si",
                        "occu": 1
                    }
                ],
                "abc": [
                    0.16570675,
                    0.60430821,
                    0.86385773
                ],
                "xyz": [
                    0.6419320477221464,
                    2.352941646931423,
                    6.769485285429562
                ],
                "label": "Si",
                "properties": {}
            },
            {
                "species": [
                    {
                        "element": "Si",
                        "occu": 1
                    }
                ],
                "abc": [
                    0.39569179,
                    0.83429325,
                    0.63614227
                ],
                "xyz": [
                    3.2552981122778535,
                    2.352941646931423,
                    4.985117434570437
                ],
                "label": "Si",
                "properties": {}
            },
            {
                "species": [
                    {
                        "element": "Si",
                        "occu": 1
                    }
                ],
                "abc": [
                    0.83429325,
                    0.39569179,
                    0.13614227
                ],
                "xyz": [
                    4.754409652277853,
                    -2.352941646931423,
                    1.0670055745704372
                ],
                "label": "Si",
                "properties": {}
            },
            {
                "species": [
                    {
                        "element": "Si",
                        "occu": 1
                    }
                ],
                "abc": [
                    0.60430821,
                    0.16570675,
                    0.36385773
                ],
                "xyz": [
                    2.1410435877221463,
                    -2.352941646931423,
                    2.8513734254295624
                ],
                "label": "Si",
                "properties": {}
            },
            {
                "species": [
                    {
                        "element": "O",
                        "occu": 1
                    }
                ],
                "abc": [
                    0.38075326,
                    0.67706564,
                    0.45208654
                ],
                "xyz": [
                    3.0845083423938275,
                    1.5896110774537084,
                    3.5427925611112014
                ],
                "label": "O",
                "properties": {}
            },
            {
                "species": [
                    {
                        "element": "O",
                        "occu": 1
                    }
                ],
                "abc": [
                    0.35395925,
                    0.03792237,
                    0.26496566
                ],
                "xyz": [
                    0.8504116653712389,
                    -1.6954260410311184,
                    2.0763825335054387
                ],
                "label": "O",
                "properties": {}
            },
            {
                "species": [
                    {
                        "element": "O",
                        "occu": 1
                    }
                ],
                "abc": [
                    0.02170202,
                    0.76127616,
                    0.86695415
                ],
                "xyz": [
                    0.6870585848364685,
                    3.9675535849777854,
                    6.793751256777941
                ],
                "label": "O",
                "properties": {}
            },
            {
                "species": [
                    {
                        "element": "O",
                        "occu": 1
                    }
                ],
                "abc": [
                    0.23872384,
                    0.97829798,
                    0.63304585
                ],
                "xyz": [
                    3.210171575163532,
                    3.967553584977785,
                    4.960851463222059
                ],
                "label": "O",
                "properties": {}
            },
            {
                "species": [
                    {
                        "element": "O",
                        "occu": 1
                    }
                ],
                "abc": [
                    0.33506904,
                    0.66493096,
                    0.75
                ],
                "xyz": [
                    1.9486150799999997,
                    1.7695924890554653,
                    5.87730136
                ],
                "label": "O",
                "properties": {}
            },
            {
                "species": [
                    {
                        "element": "O",
                        "occu": 1
                    }
                ],
                "abc": [
                    0.64604075,
                    0.96207763,
                    0.73503434
                ],
                "xyz": [
                    4.5459300346287606,
                    1.6954260410311184,
                    5.760108326494562
                ],
                "label": "O",
                "properties": {}
            },
            {
                "species": [
                    {
                        "element": "O",
                        "occu": 1
                    }
                ],
                "abc": [
                    0.66493096,
                    0.33506904,
                    0.25
                ],
                "xyz": [
                    3.44772662,
                    -1.7695924890554653,
                    1.9591895
                ],
                "label": "O",
                "properties": {}
            },
            {
                "species": [
                    {
                        "element": "O",
                        "occu": 1
                    }
                ],
                "abc": [
                    0.03792237,
                    0.35395925,
                    0.76496566
                ],
                "xyz": [
                    -0.6486998746287609,
                    1.6954260410311184,
                    5.994494393505438
                ],
                "label": "O",
                "properties": {}
            },
            {
                "species": [
                    {
                        "element": "O",
                        "occu": 1
                    }
                ],
                "abc": [
                    0.67706564,
                    0.38075326,
                    0.95208654
                ],
                "xyz": [
                    1.5853968023938276,
                    -1.5896110774537084,
                    7.460904421111201
                ],
                "label": "O",
                "properties": {}
            },
            {
                "species": [
                    {
                        "element": "O",
                        "occu": 1
                    }
                ],
                "abc": [
                    0.97829798,
                    0.23872384,
                    0.13304585
                ],
                "xyz": [
                    4.709283115163532,
                    -3.967553584977785,
                    1.0427396032220593
                ],
                "label": "O",
                "properties": {}
            },
            {
                "species": [
                    {
                        "element": "O",
                        "occu": 1
                    }
                ],
                "abc": [
                    0.61924674,
                    0.32293436,
                    0.54791346
                ],
                "xyz": [
                    2.3118333576061723,
                    -1.5896110774537084,
                    4.293698298888798
                ],
                "label": "O",
                "properties": {}
            },
            {
                "species": [
                    {
                        "element": "O",
                        "occu": 1
                    }
                ],
                "abc": [
                    0.76127616,
                    0.02170202,
                    0.36695415
                ],
                "xyz": [
                    2.186170124836468,
                    -3.9675535849777854,
                    2.8756393967779403
                ],
                "label": "O",
                "properties": {}
            },
            {
                "species": [
                    {
                        "element": "O",
                        "occu": 1
                    }
                ],
                "abc": [
                    0.96207763,
                    0.64604075,
                    0.23503434
                ],
                "xyz": [
                    6.045041574628761,
                    -1.6954260410311184,
                    1.8419964664945612
                ],
                "label": "O",
                "properties": {}
            },
            {
                "species": [
                    {
                        "element": "O",
                        "occu": 1
                    }
                ],
                "abc": [
                    0.32293436,
                    0.61924674,
                    0.04791346
                ],
                "xyz": [
                    3.810944897606172,
                    1.5896110774537084,
                    0.37558643888879817
                ],
                "label": "O",
                "properties": {}
            }
        ]
    },
    "spacegroup": {
        "source": "spglib",
        "symbol": "C2/c",
        "number": 15,
        "point_group": "2/m",
        "crystal_system": "monoclinic",
        "hall": "-C 2yc"
    },
    "dielectric": {
        "epsilon_ionic": [
            [
                6.54422986,
                0.0,
                -0.07803668
            ],
            [
                0.0,
                4.42294385,
                0.0
            ],
            [
                -0.07803668,
                0.0,
                6.37286664
            ]
        ],
        "epsilon_ionic_avg": 5.780013449999999,
        "epsilon_ionic_eig": [
            6.574440707552744,
            6.342655792447256,
            4.42294385
        ],
        "epsilon_electronic": [
            [
                3.19157129,
                0.0,
                -0.04393821
            ],
            [
                0.0,
                3.19261536,
                0.0
            ],
            [
                -0.0439375,
                0.0,
                3.17114841
            ]
        ],
        "epsilon_electronic_avg": 3.185111686666666,
        "epsilon_electronic_eig": [
            3.226468702886641,
            3.136250997113359,
            3.19261536
        ]
    },
    "phonon": {
        "lowest_freq": -0.07174950730026025,
        "frequency": [
            -0.07174950730026025,
            -0.03764447322946286,
            -0.030834845233186012,
            2.177376350123669,
            2.297644360881243,
            2.3142504778421,
            2.6632959221184405,
            2.695287068621006,
            2.903618927688249,
            2.9869997351970468,
            3.0732752095029063,
            3.276709164359298,
            3.3688166060839277,
            3.5227519211617997,
            3.767953528678293,
            3.960758613298872,
            4.179404632209561,
            4.4793511451289385,
            4.547569171171144,
            4.555387293034034,
            5.283298315295718,
            5.30774082264871,
            5.33338872057648,
            5.467881904169359,
            5.595433552135917,
            5.607892643928517,
            5.761090352112762,
            5.7957744713846,
            6.140140676941469,
            6.36877370950917,
            6.891953642620075,
            7.153466831066529,
            8.119984870558019,
            8.12685434675106,
            8.394439083450592,
            8.614560128913965,
            8.784324821942738,
            9.87831039578161,
            10.007032600079139,
            10.469103440238486,
            11.99098561014726,
            12.493457819723666,
            12.784146307785399,
            12.922292176208456,
            13.073042180218945,
            13.191676743800349,
            13.470240064806541,
            13.751453521034056,
            13.793096124625524,
            14.028033160622668,
            14.645086560373837,
            15.272479649690878,
            15.632989917093816,
            15.754915528427127,
            15.830060520420302,
            16.18215527441237,
            18.376036009831438,
            18.80826177883408,
            23.82892086824227,
            23.948234826022496,
            26.031230106250966,
            26.063134763768062,
            26.304086689552683,
            26.680479305507394,
            26.778582033852423,
            27.77546803782414,
            27.92045934204257,
            28.1824537006037,
            28.703267621825983,
            28.7394149426658,
            28.769904209392163,
            28.913281500323336
        ]
    },
    "born_effective_charge": {
        "avg_abs_trace": 2.1833441666666666,
        "tensors": [
            [
                [
                    2.64318,
                    -0.04729,
                    -0.06539
                ],
                [
                    -0.02862,
                    2.74099,
                    0.01372
                ],
                [
                    -0.06078,
                    0.02097,
                    2.60042
                ]
            ],
            [
                [
                    2.64318,
                    0.04729,
                    -0.06539
                ],
                [
                    0.02874,
                    2.74102,
                    -0.01376
                ],
                [
                    -0.06078,
                    -0.02097,
                    2.60042
                ]
            ],
            [
                [
                    2.64319,
                    0.04731,
                    -0.06537
                ],
                [
                    0.02862,
                    2.74099,
                    -0.01372
                ],
                [
                    -0.06082,
                    -0.02094,
                    2.60042
                ]
            ],
            [
                [
                    2.64319,
                    -0.04731,
                    -0.06537
                ],
                [
                    -0.02874,
                    2.74102,
                    0.01376
                ],
                [
                    -0.06082,
                    0.02094,
                    2.60042
                ]
            ],
            [
                [
                    2.17135,
                    -0.0,
                    0.01283
                ],
                [
                    0.0,
                    1.5941,
                    0.0
                ],
                [
                    0.03172,
                    3e-05,
                    2.24129
                ]
            ],
            [
                [
                    2.17135,
                    0.0,
                    0.01283
                ],
                [
                    0.0,
                    1.59412,
                    0.0
                ],
                [
                    0.03172,
                    -3e-05,
                    2.24129
                ]
            ],
            [
                [
                    2.95439,
                    0.0515,
                    -0.12047
                ],
                [
                    0.17278,
                    2.8942,
                    -0.05722
                ],
                [
                    -0.15063,
                    -0.02414,
                    2.81357
                ]
            ],
            [
                [
                    2.95437,
                    -0.05153,
                    -0.12046
                ],
                [
                    -0.17278,
                    2.8942,
                    0.05722
                ],
                [
                    -0.15059,
                    0.02419,
                    2.81355
                ]
            ],
            [
                [
                    2.95437,
                    0.05153,
                    -0.12046
                ],
                [
                    0.17279,
                    2.89416,
                    -0.05712
                ],
                [
                    -0.15059,
                    -0.02419,
                    2.81355
                ]
            ],
            [
                [
                    2.95439,
                    -0.0515,
                    -0.12047
                ],
                [
                    -0.17279,
                    2.89416,
                    0.05712
                ],
                [
                    -0.15063,
                    0.02414,
                    2.81357
                ]
            ],
            [
                [
                    -1.65103,
                    0.01019,
                    -0.03778
                ],
                [
                    -0.0462,
                    -1.688,
                    -0.04194
                ],
                [
                    -0.05199,
                    -0.10973,
                    -2.18665
                ]
            ],
            [
                [
                    -2.11994,
                    0.1021,
                    -0.23809
                ],
                [
                    0.06289,
                    -1.73775,
                    0.08569
                ],
                [
                    -0.19966,
                    0.02084,
                    -1.75428
                ]
            ],
            [
                [
                    -1.65723,
                    0.04732,
                    0.0809
                ],
                [
                    -0.03127,
                    -2.31683,
                    -0.06257
                ],
                [
                    0.0821,
                    -0.09964,
                    -1.62424
                ]
            ],
            [
                [
                    -1.65723,
                    -0.04734,
                    0.0809
                ],
                [
                    0.03127,
                    -2.31683,
                    0.06257
                ],
                [
                    0.08209,
                    0.09966,
                    -1.62424
                ]
            ],
            [
                [
                    -2.51005,
                    2e-05,
                    0.74881
                ],
                [
                    -0.0,
                    -1.37916,
                    0.0
                ],
                [
                    0.73011,
                    -4e-05,
                    -1.93899
                ]
            ],
            [
                [
                    -2.11992,
                    0.10211,
                    -0.23806
                ],
                [
                    0.06289,
                    -1.73777,
                    0.08571
                ],
                [
                    -0.19968,
                    0.02075,
                    -1.75424
                ]
            ],
            [
                [
                    -2.51005,
                    -2e-05,
                    0.74881
                ],
                [
                    0.0,
                    -1.37902,
                    0.0
                ],
                [
                    0.73011,
                    4e-05,
                    -1.93899
                ]
            ],
            [
                [
                    -2.11994,
                    -0.1021,
                    -0.23809
                ],
                [
                    -0.06289,
                    -1.73777,
                    -0.08571
                ],
                [
                    -0.19966,
                    -0.02084,
                    -1.75428
                ]
            ],
            [
                [
                    -1.65103,
                    -0.01019,
                    -0.03778
                ],
                [
                    0.0462,
                    -1.6881,
                    0.04196
                ],
                [
                    -0.05199,
                    0.10973,
                    -2.18665
                ]
            ],
            [
                [
                    -1.65723,
                    0.04734,
                    0.0809
                ],
                [
                    -0.03113,
                    -2.31692,
                    -0.06258
                ],
                [
                    0.08209,
                    -0.09966,
                    -1.62424
                ]
            ],
            [
                [
                    -1.65107,
                    0.01015,
                    -0.03783
                ],
                [
                    -0.0462,
                    -1.6881,
                    -0.04196
                ],
                [
                    -0.05188,
                    -0.10971,
                    -2.18661
                ]
            ],
            [
                [
                    -1.65723,
                    -0.04732,
                    0.0809
                ],
                [
                    0.03113,
                    -2.31692,
                    0.06258
                ],
                [
                    0.0821,
                    0.09964,
                    -1.62424
                ]
            ],
            [
                [
                    -2.11992,
                    -0.10211,
                    -0.23806
                ],
                [
                    -0.06289,
                    -1.73775,
                    -0.08569
                ],
                [
                    -0.19968,
                    -0.02075,
                    -1.75424
                ]
            ],
            [
                [
                    -1.65107,
                    -0.01015,
                    -0.03783
                ],
                [
                    0.0462,
                    -1.688,
                    0.04194
                ],
                [
                    -0.05188,
                    0.10971,
                    -2.18661
                ]
            ]
        ]
    },
    "band_gap": 4.2608,
    "is_direct": false,
    "formula": "Ba2ZnSi2O7"
}