{
    "mp_id": "mp-560156",
    "nelements": 4,
    "nsites": 28,
    "elements": [
        "O",
        "Sr",
        "Tl",
        "V"
    ],
    "structure": {
        "@module": "pymatgen.core.structure",
        "@class": "Structure",
        "charge": null,
        "lattice": {
            "matrix": [
                [
                    5.84959739,
                    0.0,
                    0.0
                ],
                [
                    0.0,
                    7.52070715,
                    0.0
                ],
                [
                    0.0,
                    0.0,
                    9.96532975
                ]
            ],
            "a": 5.84959739,
            "b": 7.52070715,
            "c": 9.96532975,
            "alpha": 90.0,
            "beta": 90.0,
            "gamma": 90.0,
            "volume": 438.4058370715625
        },
        "sites": [
            {
                "species": [
                    {
                        "element": "Sr",
                        "occu": 1
                    }
                ],
                "abc": [
                    0.97508793,
                    0.2512727,
                    0.70352066
                ],
                "xyz": [
                    5.703871810348502,
                    1.889748391489805,
                    7.0108153628376355
                ],
                "label": "Sr",
                "properties": {}
            },
            {
                "species": [
                    {
                        "element": "Sr",
                        "occu": 1
                    }
                ],
                "abc": [
                    0.02491207,
                    0.7512727,
                    0.79647934
                ],
                "xyz": [
                    0.1457255796514973,
                    5.650101966489805,
                    7.937179262162365
                ],
                "label": "Sr",
                "properties": {}
            },
            {
                "species": [
                    {
                        "element": "Sr",
                        "occu": 1
                    }
                ],
                "abc": [
                    0.52491207,
                    0.7487273,
                    0.20352066
                ],
                "xyz": [
                    3.070524274651497,
                    5.630958758510195,
                    2.028150487837635
                ],
                "label": "Sr",
                "properties": {}
            },
            {
                "species": [
                    {
                        "element": "Sr",
                        "occu": 1
                    }
                ],
                "abc": [
                    0.47508793,
                    0.2487273,
                    0.29647934
                ],
                "xyz": [
                    2.7790731153485027,
                    1.8706051835101951,
                    2.954514387162365
                ],
                "label": "Sr",
                "properties": {}
            },
            {
                "species": [
                    {
                        "element": "Tl",
                        "occu": 1
                    }
                ],
                "abc": [
                    0.47745179,
                    0.4139414,
                    0.92235205
                ],
                "xyz": [
                    2.792900744634828,
                    3.11313204666101,
                    9.191542323838489
                ],
                "label": "Tl",
                "properties": {}
            },
            {
                "species": [
                    {
                        "element": "Tl",
                        "occu": 1
                    }
                ],
                "abc": [
                    0.97745179,
                    0.0860586,
                    0.07764795
                ],
                "xyz": [
                    5.717699439634828,
                    0.6472215283389899,
                    0.7737874261615124
                ],
                "label": "Tl",
                "properties": {}
            },
            {
                "species": [
                    {
                        "element": "Tl",
                        "occu": 1
                    }
                ],
                "abc": [
                    0.52254821,
                    0.9139414,
                    0.57764795
                ],
                "xyz": [
                    3.0566966453651716,
                    6.87348562166101,
                    5.756452301161513
                ],
                "label": "Tl",
                "properties": {}
            },
            {
                "species": [
                    {
                        "element": "Tl",
                        "occu": 1
                    }
                ],
                "abc": [
                    0.02254821,
                    0.5860586,
                    0.42235205
                ],
                "xyz": [
                    0.13189795036517188,
                    4.407575103338989,
                    4.2088774488384875
                ],
                "label": "Tl",
                "properties": {}
            },
            {
                "species": [
                    {
                        "element": "V",
                        "occu": 1
                    }
                ],
                "abc": [
                    0.51589067,
                    0.47059092,
                    0.58235237
                ],
                "xyz": [
                    3.017752716757351,
                    3.539176496769078,
                    5.803333397744007
                ],
                "label": "V",
                "properties": {}
            },
            {
                "species": [
                    {
                        "element": "V",
                        "occu": 1
                    }
                ],
                "abc": [
                    0.48410933,
                    0.97059092,
                    0.91764763
                ],
                "xyz": [
                    2.8318446732426485,
                    7.299530071769078,
                    9.144661227255993
                ],
                "label": "V",
                "properties": {}
            },
            {
                "species": [
                    {
                        "element": "V",
                        "occu": 1
                    }
                ],
                "abc": [
                    0.01589067,
                    0.02940908,
                    0.41764763
                ],
                "xyz": [
                    0.09295402175735129,
                    0.221177078230922,
                    4.161996352255993
                ],
                "label": "V",
                "properties": {}
            },
            {
                "species": [
                    {
                        "element": "V",
                        "occu": 1
                    }
                ],
                "abc": [
                    0.98410933,
                    0.52940908,
                    0.08235237
                ],
                "xyz": [
                    5.756643368242648,
                    3.9815306532309216,
                    0.8206685227440075
                ],
                "label": "V",
                "properties": {}
            },
            {
                "species": [
                    {
                        "element": "O",
                        "occu": 1
                    }
                ],
                "abc": [
                    0.24113796,
                    0.49119741,
                    0.16543705
                ],
                "xyz": [
                    1.4105599814459244,
                    3.6941518734484813,
                    1.6486347561172376
                ],
                "label": "O",
                "properties": {}
            },
            {
                "species": [
                    {
                        "element": "O",
                        "occu": 1
                    }
                ],
                "abc": [
                    0.50112461,
                    0.05509421,
                    0.07943825
                ],
                "xyz": [
                    2.9313772107207674,
                    0.41434741907060146,
                    0.7916283560129376
                ],
                "label": "O",
                "properties": {}
            },
            {
                "species": [
                    {
                        "element": "O",
                        "occu": 1
                    }
                ],
                "abc": [
                    0.74867615,
                    0.55266417,
                    0.66913103
                ],
                "xyz": [
                    4.379454052995248,
                    4.1564253748678155,
                    6.668111359907142
                ],
                "label": "O",
                "properties": {}
            },
            {
                "species": [
                    {
                        "element": "O",
                        "occu": 1
                    }
                ],
                "abc": [
                    0.00112461,
                    0.44490579,
                    0.92056175
                ],
                "xyz": [
                    0.0065785157207679,
                    3.3460061559293988,
                    9.173701393987063
                ],
                "label": "O",
                "properties": {}
            },
            {
                "species": [
                    {
                        "element": "O",
                        "occu": 1
                    }
                ],
                "abc": [
                    0.25132385,
                    0.05266417,
                    0.83086897
                ],
                "xyz": [
                    1.4701433370047514,
                    0.3960717998678155,
                    8.279883265092858
                ],
                "label": "O",
                "properties": {}
            },
            {
                "species": [
                    {
                        "element": "O",
                        "occu": 1
                    }
                ],
                "abc": [
                    0.74113796,
                    0.00880259,
                    0.83456295
                ],
                "xyz": [
                    4.3353586764459235,
                    0.0662017015515185,
                    8.316694993882763
                ],
                "label": "O",
                "properties": {}
            },
            {
                "species": [
                    {
                        "element": "O",
                        "occu": 1
                    }
                ],
                "abc": [
                    0.25886204,
                    0.50880259,
                    0.66543705
                ],
                "xyz": [
                    1.5142387135540756,
                    3.826555276551519,
                    6.631299631117238
                ],
                "label": "O",
                "properties": {}
            },
            {
                "species": [
                    {
                        "element": "O",
                        "occu": 1
                    }
                ],
                "abc": [
                    0.24867615,
                    0.94733583,
                    0.33086897
                ],
                "xyz": [
                    1.4546553579952484,
                    7.124635350132184,
                    3.2972183900928576
                ],
                "label": "O",
                "properties": {}
            },
            {
                "species": [
                    {
                        "element": "O",
                        "occu": 1
                    }
                ],
                "abc": [
                    0.42634871,
                    0.74761499,
                    0.93680702
                ],
                "xyz": [
                    2.4939683012458667,
                    5.622593400740178,
                    9.335590866414845
                ],
                "label": "O",
                "properties": {}
            },
            {
                "species": [
                    {
                        "element": "O",
                        "occu": 1
                    }
                ],
                "abc": [
                    0.92634871,
                    0.75238501,
                    0.06319298
                ],
                "xyz": [
                    5.418766996245866,
                    5.658467324259822,
                    0.629738883585155
                ],
                "label": "O",
                "properties": {}
            },
            {
                "species": [
                    {
                        "element": "O",
                        "occu": 1
                    }
                ],
                "abc": [
                    0.75886204,
                    0.99119741,
                    0.33456295
                ],
                "xyz": [
                    4.439037408554076,
                    7.454505448448481,
                    3.334030118882763
                ],
                "label": "O",
                "properties": {}
            },
            {
                "species": [
                    {
                        "element": "O",
                        "occu": 1
                    }
                ],
                "abc": [
                    0.49887539,
                    0.55509421,
                    0.42056175
                ],
                "xyz": [
                    2.9182201792792317,
                    4.1747009940706015,
                    4.191036518987063
                ],
                "label": "O",
                "properties": {}
            },
            {
                "species": [
                    {
                        "element": "O",
                        "occu": 1
                    }
                ],
                "abc": [
                    0.75132385,
                    0.44733583,
                    0.16913103
                ],
                "xyz": [
                    4.394942032004751,
                    3.3642817751321843,
                    1.6854464849071424
                ],
                "label": "O",
                "properties": {}
            },
            {
                "species": [
                    {
                        "element": "O",
                        "occu": 1
                    }
                ],
                "abc": [
                    0.99887539,
                    0.94490579,
                    0.57943825
                ],
                "xyz": [
                    5.843018874279232,
                    7.106359730929398,
                    5.774293231012938
                ],
                "label": "O",
                "properties": {}
            },
            {
                "species": [
                    {
                        "element": "O",
                        "occu": 1
                    }
                ],
                "abc": [
                    0.07365129,
                    0.25238501,
                    0.43680702
                ],
                "xyz": [
                    0.430830393754133,
                    1.8981137492598217,
                    4.352925991414845
                ],
                "label": "O",
                "properties": {}
            },
            {
                "species": [
                    {
                        "element": "O",
                        "occu": 1
                    }
                ],
                "abc": [
                    0.57365129,
                    0.24761499,
                    0.56319298
                ],
                "xyz": [
                    3.355629088754133,
                    1.8622398257401784,
                    5.612403758585155
                ],
                "label": "O",
                "properties": {}
            }
        ]
    },
    "spacegroup": {
        "source": "spglib",
        "symbol": "P2_12_12_1",
        "number": 19,
        "point_group": "222",
        "crystal_system": "orthorhombic",
        "hall": "P 2ac 2ab"
    },
    "dielectric": {
        "epsilon_ionic": [
            [
                15.52980769,
                3e-08,
                1e-08
            ],
            [
                3e-08,
                8.09625744,
                1e-08
            ],
            [
                1e-08,
                1e-08,
                15.17799403
            ]
        ],
        "epsilon_ionic_avg": 12.93468638666667,
        "epsilon_ionic_eig": [
            15.529807690000004,
            8.096257440000008,
            15.177994029999999
        ],
        "epsilon_electronic": [
            [
                4.5870367,
                0.0,
                0.0
            ],
            [
                0.0,
                4.81114666,
                0.0
            ],
            [
                0.0,
                0.0,
                4.43736069
            ]
        ],
        "epsilon_electronic_avg": 4.611848016666667,
        "epsilon_electronic_eig": [
            4.5870367,
            4.81114666,
            4.43736069
        ]
    },
    "phonon": {
        "lowest_freq": -0.09336015612019433,
        "frequency": [
            -0.09336015612019433,
            -0.06849623043323468,
            -0.03562748117142204,
            1.2349011383167179,
            1.3052898572056248,
            1.3747377251217174,
            1.404332084859907,
            1.4048012125335125,
            1.5164973771102717,
            1.6064965596759453,
            1.7412103958571419,
            1.7628784915784104,
            2.001230688621232,
            2.020185176826094,
            2.2676434135902426,
            2.371643297878037,
            2.5883998872090146,
            2.816375429249603,
            2.834021539977669,
            2.93961890672687,
            3.252000267031022,
            3.5115796022571435,
            3.5232324497923524,
            3.576546678662807,
            3.7284096677852876,
            3.8311544818264673,
            3.855082789575219,
            3.890224829431291,
            4.062948330950588,
            4.104775006189848,
            4.139578617837299,
            4.238224023113855,
            4.257177610131512,
            4.374881258420628,
            4.409433571584154,
            4.552099630895046,
            4.725938338478677,
            4.746371953248467,
            4.848513872628221,
            4.896005772444077,
            4.906840641553406,
            5.0673317606362405,
            5.14264542128336,
            5.175517005733205,
            5.225435601691749,
            5.529288502499802,
            5.833415155716056,
            5.982110679525908,
            8.478968057489894,
            8.530983364449405,
            8.80365697849692,
            8.860888246438464,
            8.869478271700714,
            8.936577837709958,
            9.02233143048886,
            9.083330635723964,
            9.274151375924967,
            9.744455732003988,
            9.804954465522815,
            10.148478893888264,
            10.312071343392034,
            10.450431462574548,
            10.704608482548613,
            10.807342570579417,
            10.948736474901336,
            11.019709741497774,
            11.051237599773415,
            11.502392970796617,
            22.81196487659745,
            22.900929712874316,
            23.056858491726825,
            23.10971763228125,
            23.18851518941089,
            23.301227014800222,
            23.40229768107333,
            23.651065519168203,
            23.692488541361623,
            23.80869189608609,
            23.86393389562804,
            23.997135170829605,
            24.179516403681657,
            24.2009046641721,
            24.71840135650953,
            25.50909398982034
        ]
    },
    "born_effective_charge": {
        "avg_abs_trace": 2.3542659523809526,
        "tensors": [
            [
                [
                    2.95068,
                    0.00426,
                    0.08969
                ],
                [
                    -0.19816,
                    2.62978,
                    0.08269
                ],
                [
                    0.0664,
                    -0.09656,
                    3.06241
                ]
            ],
            [
                [
                    2.95045,
                    -0.00434,
                    0.09025
                ],
                [
                    0.19816,
                    2.62978,
                    -0.08269
                ],
                [
                    0.06626,
                    0.09634,
                    3.06246
                ]
            ],
            [
                [
                    2.95045,
                    0.00434,
                    -0.09025
                ],
                [
                    -0.19814,
                    2.62978,
                    -0.08252
                ],
                [
                    -0.0664,
                    0.09656,
                    3.06241
                ]
            ],
            [
                [
                    2.95068,
                    -0.00426,
                    -0.08969
                ],
                [
                    0.19814,
                    2.62978,
                    0.08252
                ],
                [
                    -0.06626,
                    -0.09634,
                    3.06246
                ]
            ],
            [
                [
                    2.01724,
                    -0.04323,
                    -0.01596
                ],
                [
                    -0.07615,
                    2.26461,
                    -0.00636
                ],
                [
                    -0.01913,
                    -0.11601,
                    1.75541
                ]
            ],
            [
                [
                    2.01724,
                    0.04323,
                    0.01596
                ],
                [
                    0.07628,
                    2.26462,
                    -0.00632
                ],
                [
                    0.01904,
                    -0.11607,
                    1.75544
                ]
            ],
            [
                [
                    2.01722,
                    0.04286,
                    -0.01591
                ],
                [
                    0.07615,
                    2.26461,
                    0.00636
                ],
                [
                    -0.01904,
                    0.11607,
                    1.75544
                ]
            ],
            [
                [
                    2.01722,
                    -0.04286,
                    0.01591
                ],
                [
                    -0.07628,
                    2.26462,
                    0.00632
                ],
                [
                    0.01913,
                    0.11601,
                    1.75541
                ]
            ],
            [
                [
                    3.22409,
                    -0.10509,
                    0.08491
                ],
                [
                    -0.21156,
                    3.78088,
                    0.24343
                ],
                [
                    -0.05459,
                    0.01463,
                    3.03416
                ]
            ],
            [
                [
                    3.22418,
                    0.10497,
                    0.08583
                ],
                [
                    0.21156,
                    3.78088,
                    -0.24343
                ],
                [
                    -0.0547,
                    -0.01471,
                    3.03381
                ]
            ],
            [
                [
                    3.22409,
                    0.10509,
                    -0.08491
                ],
                [
                    0.21147,
                    3.78237,
                    0.24343
                ],
                [
                    0.0547,
                    0.01471,
                    3.03381
                ]
            ],
            [
                [
                    3.22418,
                    -0.10497,
                    -0.08583
                ],
                [
                    -0.21147,
                    3.78237,
                    -0.24343
                ],
                [
                    0.05459,
                    -0.01463,
                    3.03416
                ]
            ],
            [
                [
                    -2.95671,
                    0.23477,
                    -0.79422
                ],
                [
                    0.39858,
                    -1.33482,
                    0.3005
                ],
                [
                    -0.63835,
                    -0.11787,
                    -2.02885
                ]
            ],
            [
                [
                    -1.54554,
                    -0.0684,
                    -0.28371
                ],
                [
                    0.00941,
                    -1.73663,
                    -0.77262
                ],
                [
                    -0.11144,
                    -0.43248,
                    -2.91327
                ]
            ],
            [
                [
                    -2.67483,
                    -0.58541,
                    -0.76716
                ],
                [
                    -0.60763,
                    -1.71994,
                    -0.4063
                ],
                [
                    -0.68858,
                    -0.11675,
                    -1.85807
                ]
            ],
            [
                [
                    -1.54554,
                    0.0684,
                    0.28371
                ],
                [
                    -0.00922,
                    -1.73678,
                    -0.77239
                ],
                [
                    0.11158,
                    -0.43247,
                    -2.91351
                ]
            ],
            [
                [
                    -2.67484,
                    0.58565,
                    -0.76712
                ],
                [
                    0.60763,
                    -1.71994,
                    0.4063
                ],
                [
                    -0.68841,
                    0.11682,
                    -1.85796
                ]
            ],
            [
                [
                    -2.95671,
                    -0.23477,
                    0.79422
                ],
                [
                    -0.399,
                    -1.33436,
                    0.30066
                ],
                [
                    0.63817,
                    -0.11795,
                    -2.02889
                ]
            ],
            [
                [
                    -2.95699,
                    0.23518,
                    0.79452
                ],
                [
                    0.399,
                    -1.33436,
                    -0.30066
                ],
                [
                    0.63835,
                    0.11787,
                    -2.02885
                ]
            ],
            [
                [
                    -2.67483,
                    0.58541,
                    0.76716
                ],
                [
                    0.60746,
                    -1.72015,
                    -0.40634
                ],
                [
                    0.68841,
                    -0.11682,
                    -1.85796
                ]
            ],
            [
                [
                    -1.01471,
                    -0.47182,
                    -0.03439
                ],
                [
                    -0.40576,
                    -3.88461,
                    0.34113
                ],
                [
                    -0.08594,
                    0.15632,
                    -1.05153
                ]
            ],
            [
                [
                    -1.01471,
                    0.47182,
                    0.03439
                ],
                [
                    0.40564,
                    -3.88475,
                    0.34108
                ],
                [
                    0.08607,
                    0.1564,
                    -1.05161
                ]
            ],
            [
                [
                    -2.95699,
                    -0.23518,
                    -0.79452
                ],
                [
                    -0.39858,
                    -1.33482,
                    -0.3005
                ],
                [
                    -0.63817,
                    0.11795,
                    -2.02889
                ]
            ],
            [
                [
                    -1.54536,
                    0.06764,
                    -0.28282
                ],
                [
                    -0.00941,
                    -1.73663,
                    0.77262
                ],
                [
                    -0.11158,
                    0.43247,
                    -2.91351
                ]
            ],
            [
                [
                    -2.67484,
                    -0.58565,
                    0.76712
                ],
                [
                    -0.60746,
                    -1.72015,
                    0.40634
                ],
                [
                    0.68858,
                    0.11675,
                    -1.85807
                ]
            ],
            [
                [
                    -1.54536,
                    -0.06764,
                    0.28282
                ],
                [
                    0.00922,
                    -1.73678,
                    0.77239
                ],
                [
                    0.11144,
                    0.43248,
                    -2.91327
                ]
            ],
            [
                [
                    -1.01487,
                    -0.47151,
                    0.0343
                ],
                [
                    -0.40564,
                    -3.88475,
                    -0.34108
                ],
                [
                    0.08594,
                    -0.15632,
                    -1.05153
                ]
            ],
            [
                [
                    -1.01487,
                    0.47151,
                    -0.0343
                ],
                [
                    0.40576,
                    -3.88461,
                    -0.34113
                ],
                [
                    -0.08607,
                    -0.1564,
                    -1.05161
                ]
            ]
        ]
    },
    "band_gap": 3.1330999999999998,
    "is_direct": false,
    "formula": "SrTlVO4"
}