{
    "mp_id": "mp-540707",
    "nelements": 4,
    "nsites": 30,
    "elements": [
        "Cs",
        "Ge",
        "O",
        "Sn"
    ],
    "structure": {
        "@module": "pymatgen.core.structure",
        "@class": "Structure",
        "charge": null,
        "lattice": {
            "matrix": [
                [
                    7.32397294,
                    1.34e-06,
                    0.0
                ],
                [
                    -3.66198713,
                    6.34274515,
                    0.0
                ],
                [
                    0.0,
                    0.0,
                    10.58627925
                ]
            ],
            "a": 7.3239729400001226,
            "b": 7.323971994630656,
            "c": 10.58627925,
            "alpha": 90.0,
            "beta": 90.0,
            "gamma": 119.99999974897284,
            "volume": 491.77606168493986
        },
        "sites": [
            {
                "species": [
                    {
                        "element": "Cs",
                        "occu": 1
                    }
                ],
                "abc": [
                    0.333333,
                    0.666667,
                    0.05752254
                ],
                "xyz": [
                    -4.101986689875048e-06,
                    4.22849932758127,
                    0.608949671609295
                ],
                "label": "Cs",
                "properties": {}
            },
            {
                "species": [
                    {
                        "element": "Cs",
                        "occu": 1
                    }
                ],
                "abc": [
                    0.666667,
                    0.333333,
                    0.55752254
                ],
                "xyz": [
                    3.66198991198669,
                    2.11424716241873,
                    5.9020892966092955
                ],
                "label": "Cs",
                "properties": {}
            },
            {
                "species": [
                    {
                        "element": "Cs",
                        "occu": 1
                    }
                ],
                "abc": [
                    0.666667,
                    0.333333,
                    0.94247746
                ],
                "xyz": [
                    3.66198991198669,
                    2.11424716241873,
                    9.977329578390705
                ],
                "label": "Cs",
                "properties": {}
            },
            {
                "species": [
                    {
                        "element": "Cs",
                        "occu": 1
                    }
                ],
                "abc": [
                    0.333333,
                    0.666667,
                    0.44247746
                ],
                "xyz": [
                    -4.101986689875048e-06,
                    4.22849932758127,
                    4.684189953390705
                ],
                "label": "Cs",
                "properties": {}
            },
            {
                "species": [
                    {
                        "element": "Sn",
                        "occu": 1
                    }
                ],
                "abc": [
                    0.0,
                    0.0,
                    0.0
                ],
                "xyz": [
                    0.0,
                    0.0,
                    0.0
                ],
                "label": "Sn",
                "properties": {}
            },
            {
                "species": [
                    {
                        "element": "Sn",
                        "occu": 1
                    }
                ],
                "abc": [
                    0.0,
                    0.0,
                    0.5
                ],
                "xyz": [
                    0.0,
                    0.0,
                    5.293139625
                ],
                "label": "Sn",
                "properties": {}
            },
            {
                "species": [
                    {
                        "element": "Ge",
                        "occu": 1
                    }
                ],
                "abc": [
                    0.372072,
                    0.23490102,
                    0.25
                ],
                "xyz": [
                    1.8648407476678073,
                    1.489917803911533,
                    2.6465698125
                ],
                "label": "Ge",
                "properties": {}
            },
            {
                "species": [
                    {
                        "element": "Ge",
                        "occu": 1
                    }
                ],
                "abc": [
                    0.13717098,
                    0.372072,
                    0.75
                ],
                "xyz": [
                    -0.35788632976007895,
                    2.3599580572599135,
                    7.9397094375
                ],
                "label": "Ge",
                "properties": {}
            },
            {
                "species": [
                    {
                        "element": "Ge",
                        "occu": 1
                    }
                ],
                "abc": [
                    0.23490102,
                    0.86282902,
                    0.75
                ],
                "xyz": [
                    -1.4392600525721135,
                    5.472704896651619,
                    7.9397094375
                ],
                "label": "Ge",
                "properties": {}
            },
            {
                "species": [
                    {
                        "element": "Ge",
                        "occu": 1
                    }
                ],
                "abc": [
                    0.76509898,
                    0.13717098,
                    0.25
                ],
                "xyz": [
                    5.101245862572114,
                    0.8700415933483802,
                    2.6465698125
                ],
                "label": "Ge",
                "properties": {}
            },
            {
                "species": [
                    {
                        "element": "Ge",
                        "occu": 1
                    }
                ],
                "abc": [
                    0.86282902,
                    0.627928,
                    0.25
                ],
                "xyz": [
                    4.0198721397600785,
                    3.9827884327400866,
                    2.6465698125
                ],
                "label": "Ge",
                "properties": {}
            },
            {
                "species": [
                    {
                        "element": "Ge",
                        "occu": 1
                    }
                ],
                "abc": [
                    0.627928,
                    0.76509898,
                    0.75
                ],
                "xyz": [
                    1.7971450623321932,
                    4.852828686088467,
                    7.9397094375
                ],
                "label": "Ge",
                "properties": {}
            },
            {
                "species": [
                    {
                        "element": "O",
                        "occu": 1
                    }
                ],
                "abc": [
                    0.48898536,
                    0.06955319,
                    0.25
                ],
                "xyz": [
                    3.326612658065714,
                    0.4411588137799109,
                    2.6465698125
                ],
                "label": "O",
                "properties": {}
            },
            {
                "species": [
                    {
                        "element": "O",
                        "occu": 1
                    }
                ],
                "abc": [
                    0.41943216,
                    0.48898536,
                    0.75
                ],
                "xyz": [
                    1.2812516949273336,
                    3.101510082600098,
                    7.9397094375
                ],
                "label": "O",
                "properties": {}
            },
            {
                "species": [
                    {
                        "element": "O",
                        "occu": 1
                    }
                ],
                "abc": [
                    0.06955319,
                    0.58056784,
                    0.75
                ],
                "xyz": [
                    -1.6166262767212203,
                    3.6823939446072504,
                    7.9397094375
                ],
                "label": "O",
                "properties": {}
            },
            {
                "species": [
                    {
                        "element": "O",
                        "occu": 1
                    }
                ],
                "abc": [
                    0.93044681,
                    0.41943216,
                    0.25
                ],
                "xyz": [
                    5.27861208672122,
                    2.6603525453927497,
                    2.6465698125
                ],
                "label": "O",
                "properties": {}
            },
            {
                "species": [
                    {
                        "element": "O",
                        "occu": 1
                    }
                ],
                "abc": [
                    0.58056784,
                    0.51101464,
                    0.25
                ],
                "xyz": [
                    2.3807341150726664,
                    3.241236407399901,
                    2.6465698125
                ],
                "label": "O",
                "properties": {}
            },
            {
                "species": [
                    {
                        "element": "O",
                        "occu": 1
                    }
                ],
                "abc": [
                    0.51101464,
                    0.93044681,
                    0.75
                ],
                "xyz": [
                    0.3353731519342862,
                    5.901587676220089,
                    7.9397094375
                ],
                "label": "O",
                "properties": {}
            },
            {
                "species": [
                    {
                        "element": "O",
                        "occu": 1
                    }
                ],
                "abc": [
                    0.24520279,
                    0.22341847,
                    0.10695649
                ],
                "xyz": [
                    0.9777030370282115,
                    1.4170867455846592,
                    1.1322712707398326
                ],
                "label": "O",
                "properties": {}
            },
            {
                "species": [
                    {
                        "element": "O",
                        "occu": 1
                    }
                ],
                "abc": [
                    0.02178432,
                    0.24520279,
                    0.60695649
                ],
                "xyz": [
                    -0.7383816910237919,
                    1.5552588362299573,
                    6.425410895739832
                ],
                "label": "O",
                "properties": {}
            },
            {
                "species": [
                    {
                        "element": "O",
                        "occu": 1
                    }
                ],
                "abc": [
                    0.22341847,
                    0.97821568,
                    0.60695649
                ],
                "xyz": [
                    -1.945902401947997,
                    6.2045730593547015,
                    6.425410895739832
                ],
                "label": "O",
                "properties": {}
            },
            {
                "species": [
                    {
                        "element": "O",
                        "occu": 1
                    }
                ],
                "abc": [
                    0.77658153,
                    0.02178432,
                    0.10695649
                ],
                "xyz": [
                    5.607888211947996,
                    0.1381734306452982,
                    1.1322712707398326
                ],
                "label": "O",
                "properties": {}
            },
            {
                "species": [
                    {
                        "element": "O",
                        "occu": 1
                    }
                ],
                "abc": [
                    0.97821568,
                    0.75479721,
                    0.10695649
                ],
                "xyz": [
                    4.400367501023792,
                    4.787487653770043,
                    1.1322712707398326
                ],
                "label": "O",
                "properties": {}
            },
            {
                "species": [
                    {
                        "element": "O",
                        "occu": 1
                    }
                ],
                "abc": [
                    0.75479721,
                    0.77658153,
                    0.60695649
                ],
                "xyz": [
                    2.6842827729717884,
                    4.9256597444153405,
                    6.425410895739832
                ],
                "label": "O",
                "properties": {}
            },
            {
                "species": [
                    {
                        "element": "O",
                        "occu": 1
                    }
                ],
                "abc": [
                    0.75479721,
                    0.77658153,
                    0.89304351
                ],
                "xyz": [
                    2.6842827729717884,
                    4.9256597444153405,
                    9.454007979260169
                ],
                "label": "O",
                "properties": {}
            },
            {
                "species": [
                    {
                        "element": "O",
                        "occu": 1
                    }
                ],
                "abc": [
                    0.97821568,
                    0.75479721,
                    0.39304351
                ],
                "xyz": [
                    4.400367501023792,
                    4.787487653770043,
                    4.160868354260168
                ],
                "label": "O",
                "properties": {}
            },
            {
                "species": [
                    {
                        "element": "O",
                        "occu": 1
                    }
                ],
                "abc": [
                    0.77658153,
                    0.02178432,
                    0.39304351
                ],
                "xyz": [
                    5.607888211947996,
                    0.1381734306452982,
                    4.160868354260168
                ],
                "label": "O",
                "properties": {}
            },
            {
                "species": [
                    {
                        "element": "O",
                        "occu": 1
                    }
                ],
                "abc": [
                    0.22341847,
                    0.97821568,
                    0.89304351
                ],
                "xyz": [
                    -1.945902401947997,
                    6.2045730593547015,
                    9.454007979260169
                ],
                "label": "O",
                "properties": {}
            },
            {
                "species": [
                    {
                        "element": "O",
                        "occu": 1
                    }
                ],
                "abc": [
                    0.02178432,
                    0.24520279,
                    0.89304351
                ],
                "xyz": [
                    -0.7383816910237919,
                    1.5552588362299573,
                    9.454007979260169
                ],
                "label": "O",
                "properties": {}
            },
            {
                "species": [
                    {
                        "element": "O",
                        "occu": 1
                    }
                ],
                "abc": [
                    0.24520279,
                    0.22341847,
                    0.39304351
                ],
                "xyz": [
                    0.9777030370282115,
                    1.4170867455846592,
                    4.160868354260168
                ],
                "label": "O",
                "properties": {}
            }
        ]
    },
    "spacegroup": {
        "source": "spglib",
        "symbol": "P6_3/m",
        "number": 176,
        "point_group": "6/m",
        "crystal_system": "hexagonal",
        "hall": "-P 6c"
    },
    "dielectric": {
        "epsilon_ionic": [
            [
                5.02820692,
                -0.00050146,
                -1e-08
            ],
            [
                -0.00050146,
                5.02826737,
                -1e-08
            ],
            [
                -1e-08,
                -1e-08,
                5.16148895
            ]
        ],
        "epsilon_ionic_avg": 5.0726544133333356,
        "epsilon_ionic_eig": [
            5.027734774934984,
            5.028739515065019,
            5.161488950000002
        ],
        "epsilon_electronic": [
            [
                3.31995977,
                2.45e-06,
                0.0
            ],
            [
                -2.45e-06,
                3.31995997,
                0.0
            ],
            [
                0.0,
                0.0,
                3.43405448
            ]
        ],
        "epsilon_electronic_avg": 3.3579914066666667,
        "epsilon_electronic_eig": [
            3.31995987,
            3.31995987,
            3.43405448
        ]
    },
    "phonon": {
        "lowest_freq": -0.11334327925517429,
        "frequency": [
            -0.11334327925517429,
            -0.06389485634496052,
            -0.06389485443244244,
            1.493231631320472,
            1.4932316435958681,
            1.4999670380381744,
            1.693177697364979,
            1.6931777478853967,
            1.9027964401564719,
            1.9601429427251202,
            1.9601429988333026,
            2.0156138431820616,
            2.01790999717219,
            2.242309324120933,
            2.2423093731686072,
            2.394291561479787,
            2.3942916329331103,
            2.7858202150520976,
            3.1802844356430082,
            3.1802844894369673,
            3.3402680876886994,
            3.340268182806863,
            3.7310767286043633,
            3.9346416522292826,
            4.065471725111839,
            4.065471761181472,
            4.301330953378159,
            4.503339961268958,
            4.503340037248162,
            4.970775481426867,
            4.97077550601057,
            4.986631191340853,
            4.986631191340853,
            5.42005518428772,
            5.582026207909001,
            5.5820262298007055,
            5.872511196705921,
            5.912429332787493,
            6.384930841077546,
            6.499031474170177,
            6.499031511775801,
            6.560458251862379,
            7.071027193200729,
            7.071027262327922,
            7.420413910316182,
            7.420413926784276,
            7.798683788751221,
            7.798683867097817,
            7.833614330317774,
            7.833614408315018,
            8.34699249048571,
            8.4066789767152,
            10.05647065728475,
            10.620594464832557,
            10.801948965773894,
            10.80194906758891,
            11.268553290414495,
            11.268553431390963,
            11.621496181388657,
            11.621496286538685,
            12.055895858844659,
            12.110455468392539,
            12.473028389069778,
            12.473028565418385,
            12.60373112346621,
            12.899732538050813,
            14.04839998829129,
            14.151941372602021,
            14.894462650074535,
            14.894462814162448,
            14.90377224667765,
            14.903772410663068,
            21.92024057334683,
            21.92024074058961,
            22.780708849568633,
            22.86511198399279,
            22.866791182975916,
            22.866791396735803,
            23.032285190108553,
            23.03228529622053,
            23.68125656818956,
            24.327154844471494,
            24.327154894703447,
            25.212979582447502,
            25.638886668873372,
            25.63888695484538,
            25.8470603415324,
            25.847060625201177,
            26.329623565297627,
            27.274462586845054
        ]
    },
    "born_effective_charge": {
        "avg_abs_trace": 2.2819275555555554,
        "tensors": [
            [
                [
                    1.48237,
                    -0.03549,
                    0.0002
                ],
                [
                    0.0352,
                    1.48232,
                    4e-05
                ],
                [
                    -0.0,
                    -0.0,
                    1.13087
                ]
            ],
            [
                [
                    1.48232,
                    -0.03546,
                    -0.00017
                ],
                [
                    0.03528,
                    1.48228,
                    2e-05
                ],
                [
                    -0.0,
                    -0.0,
                    1.13087
                ]
            ],
            [
                [
                    1.48232,
                    -0.03546,
                    0.00017
                ],
                [
                    0.03528,
                    1.48228,
                    -2e-05
                ],
                [
                    -0.0,
                    -0.0,
                    1.13086
                ]
            ],
            [
                [
                    1.48237,
                    -0.03549,
                    -0.0002
                ],
                [
                    0.0352,
                    1.48232,
                    -4e-05
                ],
                [
                    -0.0,
                    -0.0,
                    1.13086
                ]
            ],
            [
                [
                    4.26099,
                    0.65421,
                    0.00087
                ],
                [
                    -0.6547,
                    4.26069,
                    0.00082
                ],
                [
                    -0.0,
                    -0.0,
                    4.95914
                ]
            ],
            [
                [
                    4.26099,
                    0.65421,
                    -0.00087
                ],
                [
                    -0.6547,
                    4.26069,
                    -0.00082
                ],
                [
                    -0.0,
                    -0.0,
                    4.95914
                ]
            ],
            [
                [
                    3.61537,
                    0.09045,
                    0.0
                ],
                [
                    0.46127,
                    2.95372,
                    0.0
                ],
                [
                    4e-05,
                    -1e-05,
                    3.32144
                ]
            ],
            [
                [
                    2.8805,
                    -0.03746,
                    0.0
                ],
                [
                    0.33378,
                    3.68928,
                    0.0
                ],
                [
                    3e-05,
                    3e-05,
                    3.32144
                ]
            ],
            [
                [
                    3.35825,
                    -0.61014,
                    0.0
                ],
                [
                    -0.23889,
                    3.21019,
                    0.0
                ],
                [
                    1e-05,
                    -4e-05,
                    3.32144
                ]
            ],
            [
                [
                    3.35816,
                    -0.61019,
                    0.0
                ],
                [
                    -0.23874,
                    3.21029,
                    0.0
                ],
                [
                    -1e-05,
                    4e-05,
                    3.32144
                ]
            ],
            [
                [
                    2.8802,
                    -0.03703,
                    0.0
                ],
                [
                    0.33406,
                    3.68933,
                    0.0
                ],
                [
                    -3e-05,
                    -3e-05,
                    3.32144
                ]
            ],
            [
                [
                    3.61549,
                    0.09034,
                    0.0
                ],
                [
                    0.46143,
                    2.95366,
                    0.0
                ],
                [
                    -4e-05,
                    1e-05,
                    3.32144
                ]
            ],
            [
                [
                    -3.00464,
                    0.36105,
                    0.0
                ],
                [
                    0.30441,
                    -1.45276,
                    0.0
                ],
                [
                    -2e-05,
                    9e-05,
                    -1.18884
                ]
            ],
            [
                [
                    -2.1282,
                    -0.81065,
                    0.0
                ],
                [
                    -0.86585,
                    -2.3297,
                    0.0
                ],
                [
                    -9e-05,
                    3e-05,
                    -1.18884
                ]
            ],
            [
                [
                    -1.55334,
                    0.53409,
                    0.0
                ],
                [
                    0.47902,
                    -2.90438,
                    0.0
                ],
                [
                    7e-05,
                    6e-05,
                    -1.18884
                ]
            ],
            [
                [
                    -1.55273,
                    0.53412,
                    0.0
                ],
                [
                    0.47792,
                    -2.90472,
                    0.0
                ],
                [
                    -7e-05,
                    -6e-05,
                    -1.18884
                ]
            ],
            [
                [
                    -2.12893,
                    -0.81023,
                    0.0
                ],
                [
                    -0.86658,
                    -2.32915,
                    0.0
                ],
                [
                    9e-05,
                    -3e-05,
                    -1.18884
                ]
            ],
            [
                [
                    -3.00517,
                    0.35941,
                    0.0
                ],
                [
                    0.30473,
                    -1.45242,
                    0.0
                ],
                [
                    2e-05,
                    -9e-05,
                    -1.18884
                ]
            ],
            [
                [
                    -1.84402,
                    -0.3817,
                    -0.69813
                ],
                [
                    -0.34512,
                    -1.61981,
                    -0.461
                ],
                [
                    -0.5834,
                    -0.3063,
                    -2.26978
                ]
            ],
            [
                [
                    -1.36102,
                    0.06691,
                    0.05067
                ],
                [
                    0.10341,
                    -2.10293,
                    -0.83483
                ],
                [
                    -0.02644,
                    -0.65839,
                    -2.26978
                ]
            ],
            [
                [
                    -1.99145,
                    0.25976,
                    -0.74819
                ],
                [
                    0.29723,
                    -1.47329,
                    0.37341
                ],
                [
                    -0.55696,
                    0.35209,
                    -2.26978
                ]
            ],
            [
                [
                    -1.99153,
                    0.25978,
                    0.7482
                ],
                [
                    0.29732,
                    -1.47324,
                    -0.37359
                ],
                [
                    0.55696,
                    -0.35209,
                    -2.26978
                ]
            ],
            [
                [
                    -1.36116,
                    0.06677,
                    -0.0505
                ],
                [
                    0.10334,
                    -2.10292,
                    0.83475
                ],
                [
                    0.02644,
                    0.65839,
                    -2.26978
                ]
            ],
            [
                [
                    -1.84397,
                    -0.38165,
                    0.69791
                ],
                [
                    -0.34526,
                    -1.61978,
                    0.46115
                ],
                [
                    0.5834,
                    0.3063,
                    -2.26978
                ]
            ],
            [
                [
                    -1.84397,
                    -0.38165,
                    -0.69791
                ],
                [
                    -0.34526,
                    -1.61978,
                    -0.46115
                ],
                [
                    -0.58318,
                    -0.30644,
                    -2.26977
                ]
            ],
            [
                [
                    -1.36116,
                    0.06677,
                    0.0505
                ],
                [
                    0.10334,
                    -2.10292,
                    -0.83475
                ],
                [
                    -0.02621,
                    -0.65827,
                    -2.26977
                ]
            ],
            [
                [
                    -1.99153,
                    0.25978,
                    -0.7482
                ],
                [
                    0.29732,
                    -1.47324,
                    0.37359
                ],
                [
                    -0.55697,
                    0.35183,
                    -2.26977
                ]
            ],
            [
                [
                    -1.99145,
                    0.25976,
                    0.74819
                ],
                [
                    0.29723,
                    -1.47329,
                    -0.37341
                ],
                [
                    0.55697,
                    -0.35183,
                    -2.26977
                ]
            ],
            [
                [
                    -1.36102,
                    0.06691,
                    -0.05067
                ],
                [
                    0.10341,
                    -2.10293,
                    0.83483
                ],
                [
                    0.02621,
                    0.65827,
                    -2.26977
                ]
            ],
            [
                [
                    -1.84402,
                    -0.3817,
                    0.69813
                ],
                [
                    -0.34512,
                    -1.61981,
                    0.461
                ],
                [
                    0.58318,
                    0.30644,
                    -2.26977
                ]
            ]
        ]
    },
    "band_gap": 2.6502,
    "is_direct": false,
    "formula": "Cs2Sn(GeO3)3"
}