{
    "mp_id": "mp-555794",
    "nelements": 4,
    "nsites": 32,
    "elements": [
        "Mg",
        "Na",
        "O",
        "V"
    ],
    "structure": {
        "@module": "pymatgen.core.structure",
        "@class": "Structure",
        "charge": null,
        "lattice": {
            "matrix": [
                [
                    6.73298857,
                    -0.00058468,
                    0.00055502
                ],
                [
                    -1.39638088,
                    6.63049237,
                    4.093e-05
                ],
                [
                    -1.71905634,
                    -2.91311763,
                    9.00903779
                ]
            ],
            "a": 6.732988618262215,
            "b": 6.775935996770708,
            "c": 9.623106095640798,
            "alpha": 105.03469812659472,
            "beta": 100.28443611145815,
            "gamma": 101.89766925834954,
            "volume": 402.1927698752241
        },
        "sites": [
            {
                "species": [
                    {
                        "element": "Na",
                        "occu": 1
                    }
                ],
                "abc": [
                    0.64897063,
                    0.02056715,
                    0.37147528
                ],
                "xyz": [
                    3.702205323802332,
                    -0.9461602962774894,
                    3.3469958690633437
                ],
                "label": "Na",
                "properties": {}
            },
            {
                "species": [
                    {
                        "element": "Na",
                        "occu": 1
                    }
                ],
                "abc": [
                    0.35102937,
                    0.97943285,
                    0.62852472
                ],
                "xyz": [
                    -0.08465397380233197,
                    4.66295035627749,
                    5.662637870936657
                ],
                "label": "Na",
                "properties": {}
            },
            {
                "species": [
                    {
                        "element": "Mg",
                        "occu": 1
                    }
                ],
                "abc": [
                    0.75473164,
                    0.42908181,
                    0.70346942
                ],
                "xyz": [
                    3.2731343036504392,
                    0.7952932212476398,
                    6.338019042362698
                ],
                "label": "Mg",
                "properties": {}
            },
            {
                "species": [
                    {
                        "element": "Mg",
                        "occu": 1
                    }
                ],
                "abc": [
                    0.24526836,
                    0.57091819,
                    0.29653058
                ],
                "xyz": [
                    0.3444170463495606,
                    2.9214968387523603,
                    2.671614697637302
                ],
                "label": "Mg",
                "properties": {}
            },
            {
                "species": [
                    {
                        "element": "Mg",
                        "occu": 1
                    }
                ],
                "abc": [
                    0.2105496,
                    0.18459826,
                    0.01844485
                ],
                "xyz": [
                    1.1281508331399541,
                    1.1701222325874427,
                    0.1662947655266553
                ],
                "label": "Mg",
                "properties": {}
            },
            {
                "species": [
                    {
                        "element": "Mg",
                        "occu": 1
                    }
                ],
                "abc": [
                    0.7894504,
                    0.81540174,
                    0.98155515
                ],
                "xyz": [
                    2.4894005168600453,
                    2.5466678274125565,
                    8.843338974473346
                ],
                "label": "Mg",
                "properties": {}
            },
            {
                "species": [
                    {
                        "element": "V",
                        "occu": 1
                    }
                ],
                "abc": [
                    0.11383989,
                    0.04757309,
                    0.30588557
                ],
                "xyz": [
                    0.17421799647852432,
                    -0.575714196374161,
                    2.755799790128012
                ],
                "label": "V",
                "properties": {}
            },
            {
                "species": [
                    {
                        "element": "V",
                        "occu": 1
                    }
                ],
                "abc": [
                    0.88616011,
                    0.95242691,
                    0.69411443
                ],
                "xyz": [
                    3.443333353521475,
                    4.292504256374162,
                    6.2538339498719875
                ],
                "label": "V",
                "properties": {}
            },
            {
                "species": [
                    {
                        "element": "V",
                        "occu": 1
                    }
                ],
                "abc": [
                    0.22518267,
                    0.42686711,
                    0.61319417
                ],
                "xyz": [
                    -0.1340320530223129,
                    1.0439007088152379,
                    5.524431902694
                ],
                "label": "V",
                "properties": {}
            },
            {
                "species": [
                    {
                        "element": "V",
                        "occu": 1
                    }
                ],
                "abc": [
                    0.77481733,
                    0.57313289,
                    0.38680583
                ],
                "xyz": [
                    3.751583403022313,
                    2.6728893511847622,
                    3.4852018373060005
                ],
                "label": "V",
                "properties": {}
            },
            {
                "species": [
                    {
                        "element": "V",
                        "occu": 1
                    }
                ],
                "abc": [
                    0.77284514,
                    0.33846993,
                    0.045164
                ],
                "xyz": [
                    4.653285094753351,
                    2.1122023766016587,
                    0.40732698083139773
                ],
                "label": "V",
                "properties": {}
            },
            {
                "species": [
                    {
                        "element": "V",
                        "occu": 1
                    }
                ],
                "abc": [
                    0.22715486,
                    0.66153007,
                    0.954836
                ],
                "xyz": [
                    -1.0357337447533514,
                    1.604587683398341,
                    8.602306759168604
                ],
                "label": "V",
                "properties": {}
            },
            {
                "species": [
                    {
                        "element": "O",
                        "occu": 1
                    }
                ],
                "abc": [
                    0.06261582,
                    0.19186007,
                    0.47791048
                ],
                "xyz": [
                    -0.6678731736187273,
                    -0.12011932482473431,
                    4.305556180422121
                ],
                "label": "O",
                "properties": {}
            },
            {
                "species": [
                    {
                        "element": "O",
                        "occu": 1
                    }
                ],
                "abc": [
                    0.72368338,
                    0.10468037,
                    0.65219644
                ],
                "xyz": [
                    3.605215833552211,
                    -1.2062656762120785,
                    5.87606831778058
                ],
                "label": "O",
                "properties": {}
            },
            {
                "species": [
                    {
                        "element": "O",
                        "occu": 1
                    }
                ],
                "abc": [
                    0.52433627,
                    0.24092194,
                    0.0420319
                ],
                "xyz": [
                    3.121676117980681,
                    1.474680647092857,
                    0.37896785353708057
                ],
                "label": "O",
                "properties": {}
            },
            {
                "species": [
                    {
                        "element": "O",
                        "occu": 1
                    }
                ],
                "abc": [
                    0.2290448,
                    0.24676637,
                    0.2436451
                ],
                "xyz": [
                    0.7787365256579962,
                    0.9262817792708201,
                    2.1951451378407496
                ],
                "label": "O",
                "properties": {}
            },
            {
                "species": [
                    {
                        "element": "O",
                        "occu": 1
                    }
                ],
                "abc": [
                    0.86697055,
                    0.91070639,
                    0.20807977
                ],
                "xyz": [
                    4.207908965542549,
                    5.431764023430725,
                    1.8751169724717123
                ],
                "label": "O",
                "properties": {}
            },
            {
                "species": [
                    {
                        "element": "O",
                        "occu": 1
                    }
                ],
                "abc": [
                    0.87202937,
                    0.12849094,
                    0.98165893
                ],
                "xyz": [
                    4.004414481710957,
                    -2.0082395964778597,
                    8.844291650136077
                ],
                "label": "O",
                "properties": {}
            },
            {
                "species": [
                    {
                        "element": "O",
                        "occu": 1
                    }
                ],
                "abc": [
                    0.09156975,
                    0.5179177,
                    0.75650195
                ],
                "xyz": [
                    -1.4071417669556814,
                    1.2302166514621407,
                    6.815426677172797
                ],
                "label": "O",
                "properties": {}
            },
            {
                "species": [
                    {
                        "element": "O",
                        "occu": 1
                    }
                ],
                "abc": [
                    0.90843025,
                    0.4820823,
                    0.24349805
                ],
                "xyz": [
                    5.024693116955682,
                    2.486573408537859,
                    2.1942070628272035
                ],
                "label": "O",
                "properties": {}
            },
            {
                "species": [
                    {
                        "element": "O",
                        "occu": 1
                    }
                ],
                "abc": [
                    0.72228856,
                    0.39387024,
                    0.47621045
                ],
                "xyz": [
                    3.4945351531379947,
                    1.2238742559295743,
                    4.2906149457484
                ],
                "label": "O",
                "properties": {}
            },
            {
                "species": [
                    {
                        "element": "O",
                        "occu": 1
                    }
                ],
                "abc": [
                    0.27771144,
                    0.60612976,
                    0.52378955
                ],
                "xyz": [
                    0.12301619686200482,
                    2.4929158040704245,
                    4.719018794251601
                ],
                "label": "O",
                "properties": {}
            },
            {
                "species": [
                    {
                        "element": "O",
                        "occu": 1
                    }
                ],
                "abc": [
                    0.13302945,
                    0.08929361,
                    0.79192023
                ],
                "xyz": [
                    -0.5903576155425485,
                    -1.714973963430725,
                    7.134516767528289
                ],
                "label": "O",
                "properties": {}
            },
            {
                "species": [
                    {
                        "element": "O",
                        "occu": 1
                    }
                ],
                "abc": [
                    0.78805506,
                    0.49732094,
                    0.93159778
                ],
                "xyz": [
                    3.010047189632111,
                    0.5831680210918853,
                    8.393257346765582
                ],
                "label": "O",
                "properties": {}
            },
            {
                "species": [
                    {
                        "element": "O",
                        "occu": 1
                    }
                ],
                "abc": [
                    0.47566373,
                    0.75907806,
                    0.9579681
                ],
                "xyz": [
                    0.49587523201931893,
                    2.2421094129071433,
                    8.63066588646292
                ],
                "label": "O",
                "properties": {}
            },
            {
                "species": [
                    {
                        "element": "O",
                        "occu": 1
                    }
                ],
                "abc": [
                    0.93738418,
                    0.80813993,
                    0.52208952
                ],
                "xyz": [
                    4.285424523618727,
                    3.8369093848247333,
                    4.70407755957788
                ],
                "label": "O",
                "properties": {}
            },
            {
                "species": [
                    {
                        "element": "O",
                        "occu": 1
                    }
                ],
                "abc": [
                    0.7709552,
                    0.75323363,
                    0.7563549
                ],
                "xyz": [
                    2.8388148243420037,
                    2.7905082807291794,
                    6.814488602159252
                ],
                "label": "O",
                "properties": {}
            },
            {
                "species": [
                    {
                        "element": "O",
                        "occu": 1
                    }
                ],
                "abc": [
                    0.27631662,
                    0.89531963,
                    0.34780356
                ],
                "xyz": [
                    0.012335516447788408,
                    4.923055736212079,
                    3.133565422219421
                ],
                "label": "O",
                "properties": {}
            },
            {
                "species": [
                    {
                        "element": "O",
                        "occu": 1
                    }
                ],
                "abc": [
                    0.5594615,
                    0.63868609,
                    0.32339308
                ],
                "xyz": [
                    2.319067915970968,
                    3.292394057852312,
                    2.913797132487887
                ],
                "label": "O",
                "properties": {}
            },
            {
                "species": [
                    {
                        "element": "O",
                        "occu": 1
                    }
                ],
                "abc": [
                    0.12797063,
                    0.87150906,
                    0.01834107
                ],
                "xyz": [
                    -0.3868631317109575,
                    5.725029656477859,
                    0.1653420898639237
                ],
                "label": "O",
                "properties": {}
            },
            {
                "species": [
                    {
                        "element": "O",
                        "occu": 1
                    }
                ],
                "abc": [
                    0.4405385,
                    0.36131391,
                    0.67660692
                ],
                "xyz": [
                    1.2984834340290312,
                    0.42439600214768736,
                    6.095836607512114
                ],
                "label": "O",
                "properties": {}
            },
            {
                "species": [
                    {
                        "element": "O",
                        "occu": 1
                    }
                ],
                "abc": [
                    0.21194494,
                    0.50267906,
                    0.06840222
                ],
                "xyz": [
                    0.6075041603678883,
                    3.133622038908114,
                    0.6163763932344184
                ],
                "label": "O",
                "properties": {}
            }
        ]
    },
    "spacegroup": {
        "source": "spglib",
        "symbol": "P-1",
        "number": 2,
        "point_group": "-1",
        "crystal_system": "triclinic",
        "hall": "-P 1"
    },
    "dielectric": {
        "epsilon_ionic": [
            [
                4.54861958,
                -0.65817893,
                -0.16750073
            ],
            [
                -0.65817893,
                5.30165671,
                -0.11884527
            ],
            [
                -0.16750073,
                -0.11884527,
                6.38647937
            ]
        ],
        "epsilon_ionic_avg": 5.412251886666667,
        "epsilon_ionic_eig": [
            4.148183613069282,
            5.6829214317267684,
            6.4056506152039505
        ],
        "epsilon_electronic": [
            [
                3.54429988,
                -0.098811,
                -0.2112819
            ],
            [
                -0.09880805,
                3.75573311,
                0.09109051
            ],
            [
                -0.2112811,
                0.09109064,
                3.95853583
            ]
        ],
        "epsilon_electronic_avg": 3.752856273333334,
        "epsilon_electronic_eig": [
            4.092338946651107,
            3.444664996543597,
            3.721564876805299
        ]
    },
    "phonon": {
        "lowest_freq": -0.19158286685799364,
        "frequency": [
            -0.19158286685799364,
            -0.15711473332211817,
            -0.1159949616282195,
            2.545590165018142,
            2.764635753592841,
            2.9812574682368913,
            3.1061370938292496,
            3.129363331749942,
            3.314087518559161,
            3.443245547315464,
            3.5378551460273786,
            3.6083591860019455,
            3.789011470762743,
            3.974034887897806,
            4.104466086827514,
            4.17377899723804,
            4.262837858133672,
            4.56168085095732,
            4.619403010819249,
            4.7664072507069575,
            4.990019939582759,
            5.016294935788102,
            5.1435961501565695,
            5.295233927892331,
            5.3547617462602615,
            5.4209493939657,
            5.480393456422817,
            5.574258201660689,
            5.700070374191404,
            6.0971780022496205,
            6.139649300879206,
            6.223618233056117,
            6.502752406778969,
            6.809283630466456,
            6.906119936051968,
            7.356802899394798,
            7.787999207407366,
            7.788289764525421,
            7.882508731677633,
            8.026098361379248,
            8.385438990497363,
            8.473602060529943,
            8.693952251422354,
            8.702130119833415,
            9.000185443009592,
            9.121923448708163,
            9.21185165615865,
            9.396681017645017,
            9.48395986612649,
            9.587228009166349,
            9.825517919745739,
            9.873810117518337,
            10.029239604831004,
            10.085172225584135,
            10.16922518023675,
            10.210169977128976,
            10.484597351476712,
            10.538795332091077,
            10.661004827129805,
            10.971157563681045,
            11.182464902533193,
            11.223390506396802,
            11.299770703043533,
            11.400095963595614,
            11.415470326666963,
            11.829812922875918,
            11.956918741015844,
            12.098242699406132,
            12.440813620409061,
            12.776950361755091,
            12.92695442659655,
            13.193819421567218,
            16.44596992706481,
            16.775080566877282,
            16.931042679529405,
            17.14319548716994,
            20.27239737096183,
            20.912042603725734,
            22.980298767688137,
            23.25582366484921,
            24.273000373658217,
            24.307501990474414,
            24.641777141993398,
            24.988937873563238,
            25.590336750849623,
            25.86004173615664,
            26.009044524313936,
            26.05172124844118,
            26.377129373620352,
            26.53665733651987,
            27.140525356486254,
            27.233146167385677,
            28.230183495091996,
            28.234317233184115,
            28.569140862885416,
            28.737105842435735
        ]
    },
    "born_effective_charge": {
        "avg_abs_trace": 2.1827760416666666,
        "tensors": [
            [
                [
                    1.32431,
                    -0.05896,
                    0.0083
                ],
                [
                    -0.02686,
                    1.27312,
                    -0.08573
                ],
                [
                    0.14329,
                    -0.10999,
                    0.9132
                ]
            ],
            [
                [
                    1.32429,
                    -0.05896,
                    0.00829
                ],
                [
                    -0.02686,
                    1.27312,
                    -0.08573
                ],
                [
                    0.1433,
                    -0.11,
                    0.91321
                ]
            ],
            [
                [
                    2.64969,
                    -0.06709,
                    0.00116
                ],
                [
                    -0.21268,
                    2.7678,
                    -0.65823
                ],
                [
                    0.19511,
                    -0.24233,
                    2.38163
                ]
            ],
            [
                [
                    2.64968,
                    -0.06709,
                    0.00114
                ],
                [
                    -0.21268,
                    2.76779,
                    -0.65824
                ],
                [
                    0.19512,
                    -0.24233,
                    2.38164
                ]
            ],
            [
                [
                    2.67652,
                    -0.14022,
                    0.45082
                ],
                [
                    -0.08932,
                    2.6668,
                    -0.02532
                ],
                [
                    -0.04499,
                    -0.15231,
                    2.52288
                ]
            ],
            [
                [
                    2.67652,
                    -0.14023,
                    0.45082
                ],
                [
                    -0.08932,
                    2.6668,
                    -0.02531
                ],
                [
                    -0.04498,
                    -0.1523,
                    2.5229
                ]
            ],
            [
                [
                    3.01632,
                    0.0053,
                    -0.38791
                ],
                [
                    -0.48971,
                    3.83341,
                    0.81899
                ],
                [
                    -0.73221,
                    0.16758,
                    4.19075
                ]
            ],
            [
                [
                    3.01617,
                    0.00534,
                    -0.38804
                ],
                [
                    -0.48971,
                    3.83374,
                    0.81899
                ],
                [
                    -0.73215,
                    0.16736,
                    4.191
                ]
            ],
            [
                [
                    2.88764,
                    -0.48071,
                    -0.39535
                ],
                [
                    -0.10947,
                    3.48994,
                    0.23963
                ],
                [
                    -0.44782,
                    0.69326,
                    4.54576
                ]
            ],
            [
                [
                    2.88771,
                    -0.48028,
                    -0.39533
                ],
                [
                    -0.10969,
                    3.48977,
                    0.23981
                ],
                [
                    -0.44767,
                    0.69325,
                    4.54553
                ]
            ],
            [
                [
                    3.50773,
                    0.04159,
                    -0.89861
                ],
                [
                    0.22368,
                    3.58065,
                    0.07317
                ],
                [
                    -0.41402,
                    -0.02101,
                    4.15845
                ]
            ],
            [
                [
                    3.50791,
                    0.04192,
                    -0.89855
                ],
                [
                    0.22381,
                    3.58049,
                    0.0732
                ],
                [
                    -0.41387,
                    -0.02105,
                    4.15839
                ]
            ],
            [
                [
                    -0.76206,
                    0.03452,
                    0.53593
                ],
                [
                    0.03579,
                    -1.78575,
                    -1.65986
                ],
                [
                    0.26455,
                    -1.75764,
                    -3.47643
                ]
            ],
            [
                [
                    -1.82292,
                    0.97121,
                    -0.17152
                ],
                [
                    1.24796,
                    -2.183,
                    0.35817
                ],
                [
                    -0.19451,
                    0.24106,
                    -1.09557
                ]
            ],
            [
                [
                    -2.78337,
                    -0.80806,
                    -0.11441
                ],
                [
                    -0.92743,
                    -0.95955,
                    -0.08864
                ],
                [
                    0.05182,
                    0.0139,
                    -0.85617
                ]
            ],
            [
                [
                    -1.05139,
                    -0.47513,
                    0.4232
                ],
                [
                    -0.50302,
                    -2.76013,
                    0.61383
                ],
                [
                    0.40878,
                    0.65568,
                    -1.56743
                ]
            ],
            [
                [
                    -1.86384,
                    -0.47592,
                    -0.72437
                ],
                [
                    -0.56559,
                    -1.12489,
                    -0.61109
                ],
                [
                    -0.62097,
                    -0.3247,
                    -1.76007
                ]
            ],
            [
                [
                    -1.91993,
                    1.19499,
                    0.45437
                ],
                [
                    1.13516,
                    -2.12879,
                    -0.6529
                ],
                [
                    0.80215,
                    -0.63644,
                    -1.48828
                ]
            ],
            [
                [
                    -1.60009,
                    0.09088,
                    1.07652
                ],
                [
                    0.16011,
                    -0.81042,
                    -0.59746
                ],
                [
                    1.01474,
                    -0.68898,
                    -4.22108
                ]
            ],
            [
                [
                    -1.5999,
                    0.09084,
                    1.07653
                ],
                [
                    0.16038,
                    -0.81047,
                    -0.59737
                ],
                [
                    1.01461,
                    -0.68882,
                    -4.22113
                ]
            ],
            [
                [
                    -0.78766,
                    0.03575,
                    0.01369
                ],
                [
                    -0.16051,
                    -2.22758,
                    0.97099
                ],
                [
                    0.0806,
                    0.79037,
                    -1.36293
                ]
            ],
            [
                [
                    -0.78768,
                    0.03639,
                    0.01324
                ],
                [
                    -0.16054,
                    -2.22743,
                    0.97108
                ],
                [
                    0.08081,
                    0.79095,
                    -1.3632
                ]
            ],
            [
                [
                    -1.86405,
                    -0.47599,
                    -0.72451
                ],
                [
                    -0.56577,
                    -1.12482,
                    -0.61113
                ],
                [
                    -0.62118,
                    -0.3248,
                    -1.76014
                ]
            ],
            [
                [
                    -1.14772,
                    -0.38231,
                    0.16704
                ],
                [
                    -0.168,
                    -2.58048,
                    1.07832
                ],
                [
                    0.16306,
                    1.18836,
                    -1.96121
                ]
            ],
            [
                [
                    -2.78334,
                    -0.80813,
                    -0.11446
                ],
                [
                    -0.92737,
                    -0.95935,
                    -0.08843
                ],
                [
                    0.052,
                    0.01401,
                    -0.85625
                ]
            ],
            [
                [
                    -0.76266,
                    0.03423,
                    0.53596
                ],
                [
                    0.036,
                    -1.78557,
                    -1.65988
                ],
                [
                    0.26467,
                    -1.75778,
                    -3.47639
                ]
            ],
            [
                [
                    -1.05125,
                    -0.47502,
                    0.42297
                ],
                [
                    -0.50304,
                    -2.7603,
                    0.61378
                ],
                [
                    0.40901,
                    0.65591,
                    -1.56742
                ]
            ],
            [
                [
                    -1.82305,
                    0.97126,
                    -0.17165
                ],
                [
                    1.2476,
                    -2.18267,
                    0.35791
                ],
                [
                    -0.19454,
                    0.241,
                    -1.09558
                ]
            ],
            [
                [
                    -2.32307,
                    0.51358,
                    -0.43829
                ],
                [
                    0.45,
                    -1.05141,
                    0.22597
                ],
                [
                    -0.67027,
                    0.18302,
                    -0.92336
                ]
            ],
            [
                [
                    -1.91988,
                    1.19502,
                    0.45418
                ],
                [
                    1.13557,
                    -2.12907,
                    -0.65288
                ],
                [
                    0.80219,
                    -0.63636,
                    -1.48814
                ]
            ],
            [
                [
                    -2.32293,
                    0.5136,
                    -0.4382
                ],
                [
                    0.44934,
                    -1.05133,
                    0.22591
                ],
                [
                    -0.66986,
                    0.18277,
                    -0.92316
                ]
            ],
            [
                [
                    -1.1477,
                    -0.3823,
                    0.16704
                ],
                [
                    -0.16788,
                    -2.5804,
                    1.07845
                ],
                [
                    0.16322,
                    1.18836,
                    -1.9614
                ]
            ]
        ]
    },
    "band_gap": 2.8998,
    "is_direct": false,
    "formula": "NaMg2V3O10"
}