{
    "mp_id": "mp-5061",
    "nelements": 3,
    "nsites": 12,
    "elements": [
        "Li",
        "O",
        "Re"
    ],
    "structure": {
        "@module": "pymatgen.core.structure",
        "@class": "Structure",
        "charge": null,
        "lattice": {
            "matrix": [
                [
                    2.5218842,
                    -4.35174544,
                    0.00016681
                ],
                [
                    2.5218842,
                    4.35174544,
                    0.00016681
                ],
                [
                    -1.71249362,
                    0.0,
                    4.70920376
                ]
            ],
            "a": 5.029670796443442,
            "b": 5.029670796443442,
            "c": 5.010911539005537,
            "alpha": 99.86482187082926,
            "beta": 99.86482187082926,
            "gamma": 119.81447549317274,
            "volume": 103.36572321690322
        },
        "sites": [
            {
                "species": [
                    {
                        "element": "Li",
                        "occu": 1
                    }
                ],
                "abc": [
                    0.33372743,
                    0.66627257,
                    0.0
                ],
                "xyz": [
                    2.5218842,
                    1.4471517965891616,
                    0.00016681
                ],
                "label": "Li",
                "properties": {}
            },
            {
                "species": [
                    {
                        "element": "Li",
                        "occu": 1
                    }
                ],
                "abc": [
                    0.66627257,
                    0.33372743,
                    0.0
                ],
                "xyz": [
                    2.5218842,
                    -1.4471517965891616,
                    0.00016681
                ],
                "label": "Li",
                "properties": {}
            },
            {
                "species": [
                    {
                        "element": "Li",
                        "occu": 1
                    }
                ],
                "abc": [
                    0.5,
                    0.5,
                    0.5
                ],
                "xyz": [
                    1.66563739,
                    0.0,
                    2.35476869
                ],
                "label": "Li",
                "properties": {}
            },
            {
                "species": [
                    {
                        "element": "Li",
                        "occu": 1
                    }
                ],
                "abc": [
                    0.1767188,
                    0.8232812,
                    0.5
                ],
                "xyz": [
                    1.6656373900000006,
                    2.8136749758754562,
                    2.35476869
                ],
                "label": "Li",
                "properties": {}
            },
            {
                "species": [
                    {
                        "element": "Li",
                        "occu": 1
                    }
                ],
                "abc": [
                    0.8232812,
                    0.1767188,
                    0.5
                ],
                "xyz": [
                    1.6656373900000006,
                    -2.8136749758754562,
                    2.35476869
                ],
                "label": "Li",
                "properties": {}
            },
            {
                "species": [
                    {
                        "element": "Re",
                        "occu": 1
                    }
                ],
                "abc": [
                    0.0,
                    0.0,
                    0.0
                ],
                "xyz": [
                    0.0,
                    0.0,
                    0.0
                ],
                "label": "Re",
                "properties": {}
            },
            {
                "species": [
                    {
                        "element": "O",
                        "occu": 1
                    }
                ],
                "abc": [
                    0.38566946,
                    0.07761945,
                    0.23496633
                ],
                "xyz": [
                    0.7659826411244076,
                    -1.3405552263094545,
                    1.106581605932478
                ],
                "label": "O",
                "properties": {}
            },
            {
                "species": [
                    {
                        "element": "O",
                        "occu": 1
                    }
                ],
                "abc": [
                    0.07761945,
                    0.38566946,
                    0.23496633
                ],
                "xyz": [
                    0.7659826411244076,
                    1.3405552263094545,
                    1.106581605932478
                ],
                "label": "O",
                "properties": {}
            },
            {
                "species": [
                    {
                        "element": "O",
                        "occu": 1
                    }
                ],
                "abc": [
                    0.92238055,
                    0.61433054,
                    0.76503367
                ],
                "xyz": [
                    2.5652921388755923,
                    -1.3405552263094545,
                    3.602955774067522
                ],
                "label": "O",
                "properties": {}
            },
            {
                "species": [
                    {
                        "element": "O",
                        "occu": 1
                    }
                ],
                "abc": [
                    0.61433054,
                    0.92238055,
                    0.76503367
                ],
                "xyz": [
                    2.5652921388755923,
                    1.3405552263094545,
                    3.602955774067522
                ],
                "label": "O",
                "properties": {}
            },
            {
                "species": [
                    {
                        "element": "O",
                        "occu": 1
                    }
                ],
                "abc": [
                    0.22953114,
                    0.22953114,
                    0.77152954
                ],
                "xyz": [
                    -0.16353750414355872,
                    0.0,
                    3.6333663868979973
                ],
                "label": "O",
                "properties": {}
            },
            {
                "species": [
                    {
                        "element": "O",
                        "occu": 1
                    }
                ],
                "abc": [
                    0.77046886,
                    0.77046886,
                    0.22847046
                ],
                "xyz": [
                    3.494812284143559,
                    0.0,
                    1.0761709931020027
                ],
                "label": "O",
                "properties": {}
            }
        ]
    },
    "spacegroup": {
        "source": "spglib",
        "symbol": "C2/m",
        "number": 12,
        "point_group": "2/m",
        "crystal_system": "monoclinic",
        "hall": "-C 2y"
    },
    "dielectric": {
        "epsilon_ionic": [
            [
                16.73475435,
                1e-08,
                -2.29240179
            ],
            [
                1e-08,
                12.15011986,
                -2e-08
            ],
            [
                -2.29240179,
                -2e-08,
                13.99355703
            ]
        ],
        "epsilon_ionic_avg": 14.292810413333337,
        "epsilon_ionic_eig": [
            18.035044428526756,
            12.69326695147325,
            12.150119860000002
        ],
        "epsilon_electronic": [
            [
                4.54425298,
                0.0,
                -0.07658364
            ],
            [
                0.0,
                4.49392143,
                0.0
            ],
            [
                -0.07658362,
                0.0,
                4.24415402
            ]
        ],
        "epsilon_electronic_avg": 4.42744281,
        "epsilon_electronic_eig": [
            4.562666845663819,
            4.225740154336181,
            4.49392143
        ]
    },
    "phonon": {
        "lowest_freq": -0.06402005105492044,
        "frequency": [
            -0.06402005105492044,
            -0.045203603334105245,
            -0.03748244732295542,
            4.786925813153949,
            6.3396625722506155,
            7.284450880945312,
            7.781878215220903,
            7.936730119199844,
            8.03478379800893,
            8.47333237857218,
            9.008093770978626,
            9.015252673670705,
            9.083289549490324,
            9.672391286344242,
            9.92412403554361,
            9.930599024509322,
            10.178185680817732,
            10.959792123552438,
            11.140042166148147,
            11.548076807316777,
            11.776620136601542,
            12.200080279389828,
            12.425240728900345,
            12.71042642918828,
            12.936466542607226,
            12.969987848744406,
            13.792926020994832,
            13.986308432097884,
            14.130491212216908,
            14.846881994099155,
            18.657009166475234,
            18.677043088672807,
            18.943056014421643,
            19.192219555097278,
            20.49808160589773,
            23.61322230459392
        ]
    },
    "born_effective_charge": {
        "avg_abs_trace": 2.0578197222222223,
        "tensors": [
            [
                [
                    1.33442,
                    -5e-05,
                    0.03571
                ],
                [
                    -0.0,
                    1.32865,
                    0.0
                ],
                [
                    -0.00396,
                    0.00011,
                    0.35393
                ]
            ],
            [
                [
                    1.33442,
                    5e-05,
                    0.03571
                ],
                [
                    -0.0,
                    1.32875,
                    0.0
                ],
                [
                    -0.00396,
                    -0.00011,
                    0.35393
                ]
            ],
            [
                [
                    1.52309,
                    0.0,
                    0.09611
                ],
                [
                    -0.0,
                    0.43256,
                    0.0
                ],
                [
                    0.09401,
                    0.0,
                    1.65266
                ]
            ],
            [
                [
                    0.7545,
                    1e-05,
                    -0.04806
                ],
                [
                    -0.0,
                    1.31487,
                    0.0
                ],
                [
                    -0.03912,
                    -7e-05,
                    1.67032
                ]
            ],
            [
                [
                    0.7545,
                    -1e-05,
                    -0.04806
                ],
                [
                    -0.0,
                    1.31486,
                    0.0
                ],
                [
                    -0.03912,
                    7e-05,
                    1.67032
                ]
            ],
            [
                [
                    6.92885,
                    0.0,
                    -0.05249
                ],
                [
                    -0.0,
                    6.87045,
                    0.0
                ],
                [
                    -0.12983,
                    0.0,
                    6.11969
                ]
            ],
            [
                [
                    -1.71439,
                    0.70901,
                    -0.51166
                ],
                [
                    0.63551,
                    -2.53325,
                    0.88569
                ],
                [
                    -0.43289,
                    0.75318,
                    -1.97268
                ]
            ],
            [
                [
                    -1.71439,
                    -0.70901,
                    -0.51166
                ],
                [
                    -0.63546,
                    -2.53314,
                    -0.8859
                ],
                [
                    -0.43289,
                    -0.75318,
                    -1.97268
                ]
            ],
            [
                [
                    -1.71427,
                    -0.70876,
                    -0.51152
                ],
                [
                    -0.63551,
                    -2.53325,
                    -0.88569
                ],
                [
                    -0.4326,
                    -0.75347,
                    -1.97298
                ]
            ],
            [
                [
                    -1.71427,
                    0.70876,
                    -0.51152
                ],
                [
                    0.63546,
                    -2.53314,
                    0.8859
                ],
                [
                    -0.4326,
                    0.75347,
                    -1.97298
                ]
            ],
            [
                [
                    -2.88597,
                    0.0,
                    1.01375
                ],
                [
                    0.00018,
                    -1.22868,
                    3e-05
                ],
                [
                    0.92626,
                    0.0,
                    -1.96464
                ]
            ],
            [
                [
                    -2.88647,
                    0.0,
                    1.01368
                ],
                [
                    -0.00018,
                    -1.22868,
                    -3e-05
                ],
                [
                    0.92669,
                    0.0,
                    -1.96488
                ]
            ]
        ]
    },
    "band_gap": 2.3538,
    "is_direct": false,
    "formula": "Li5ReO6"
}