{
    "mp_id": "mp-540783",
    "nelements": 2,
    "nsites": 10,
    "elements": [
        "O",
        "Os"
    ],
    "structure": {
        "@module": "pymatgen.core.structure",
        "@class": "Structure",
        "charge": null,
        "lattice": {
            "matrix": [
                [
                    4.79330736,
                    -2.30174808,
                    0.00329933
                ],
                [
                    4.79330736,
                    2.30174808,
                    0.00329933
                ],
                [
                    -3.87962717,
                    0.0,
                    7.81093364
                ]
            ],
            "a": 5.317316104652074,
            "b": 5.317316104652074,
            "c": 8.721364073737885,
            "alpha": 113.6061868920655,
            "beta": 113.6061868920655,
            "gamma": 51.300662952595424,
            "volume": 172.41476872783548
        },
        "sites": [
            {
                "species": [
                    {
                        "element": "Os",
                        "occu": 1
                    }
                ],
                "abc": [
                    0.74780649,
                    0.25219351,
                    0.25
                ],
                "xyz": [
                    3.8234005675000002,
                    -1.1407762251380782,
                    1.95603274
                ],
                "label": "Os",
                "properties": {}
            },
            {
                "species": [
                    {
                        "element": "Os",
                        "occu": 1
                    }
                ],
                "abc": [
                    0.25219351,
                    0.74780649,
                    0.75
                ],
                "xyz": [
                    1.8835869824999998,
                    1.1407762251380782,
                    5.8614995599999995
                ],
                "label": "Os",
                "properties": {}
            },
            {
                "species": [
                    {
                        "element": "O",
                        "occu": 1
                    }
                ],
                "abc": [
                    0.84640418,
                    0.92187301,
                    0.30509403
                ],
                "xyz": [
                    7.292244981154324,
                    0.17371023455234624,
                    2.388903352271452
                ],
                "label": "O",
                "properties": {}
            },
            {
                "species": [
                    {
                        "element": "O",
                        "occu": 1
                    }
                ],
                "abc": [
                    0.07812699,
                    0.15359582,
                    0.19490597
                ],
                "xyz": [
                    0.35455615384567674,
                    0.17371023455234638,
                    1.5231621277285483
                ],
                "label": "O",
                "properties": {}
            },
            {
                "species": [
                    {
                        "element": "O",
                        "occu": 1
                    }
                ],
                "abc": [
                    0.15359582,
                    0.07812699,
                    0.69490597
                ],
                "xyz": [
                    -1.5852574311543233,
                    -0.17371023455234638,
                    5.428628947728548
                ],
                "label": "O",
                "properties": {}
            },
            {
                "species": [
                    {
                        "element": "O",
                        "occu": 1
                    }
                ],
                "abc": [
                    0.92187301,
                    0.84640418,
                    0.80509403
                ],
                "xyz": [
                    5.352431396154324,
                    -0.17371023455234624,
                    6.294370172271452
                ],
                "label": "O",
                "properties": {}
            },
            {
                "species": [
                    {
                        "element": "O",
                        "occu": 1
                    }
                ],
                "abc": [
                    0.41996995,
                    0.35343893,
                    0.08047834
                ],
                "xyz": [
                    3.394960522332859,
                    -0.15313764754544157,
                    0.631162704317408
                ],
                "label": "O",
                "properties": {}
            },
            {
                "species": [
                    {
                        "element": "O",
                        "occu": 1
                    }
                ],
                "abc": [
                    0.64656107,
                    0.58003005,
                    0.41952166
                ],
                "xyz": [
                    4.251840612667141,
                    -0.15313764754544157,
                    3.280902775682592
                ],
                "label": "O",
                "properties": {}
            },
            {
                "species": [
                    {
                        "element": "O",
                        "occu": 1
                    }
                ],
                "abc": [
                    0.58003005,
                    0.64656107,
                    0.91952166
                ],
                "xyz": [
                    2.312027027667141,
                    0.15313764754544157,
                    7.186369595682592
                ],
                "label": "O",
                "properties": {}
            },
            {
                "species": [
                    {
                        "element": "O",
                        "occu": 1
                    }
                ],
                "abc": [
                    0.35343893,
                    0.41996995,
                    0.58047834
                ],
                "xyz": [
                    1.455146937332859,
                    0.15313764754544157,
                    4.536629524317408
                ],
                "label": "O",
                "properties": {}
            }
        ]
    },
    "spacegroup": {
        "source": "spglib",
        "symbol": "C2/c",
        "number": 15,
        "point_group": "2/m",
        "crystal_system": "monoclinic",
        "hall": "-C 2yc"
    },
    "dielectric": {
        "epsilon_ionic": [
            [
                0.16767491,
                -5.66e-06,
                -0.00540906
            ],
            [
                -5.66e-06,
                0.21135122,
                -4.88e-06
            ],
            [
                -0.00540906,
                -4.88e-06,
                0.19313406
            ]
        ],
        "epsilon_ionic_avg": 0.19072006333333338,
        "epsilon_ionic_eig": [
            0.16657335937604778,
            0.19423560889519856,
            0.2113512217287538
        ],
        "epsilon_electronic": [
            [
                2.65862632,
                0.0,
                -0.01825533
            ],
            [
                0.0,
                2.62988579,
                0.0
            ],
            [
                -0.01825619,
                0.0,
                2.70389453
            ]
        ],
        "epsilon_electronic_avg": 2.664135546666667,
        "epsilon_electronic_eig": [
            2.6521816443834796,
            2.7103392056165205,
            2.62988579
        ]
    },
    "phonon": {
        "lowest_freq": -0.045964512957697934,
        "frequency": [
            -0.045964512957697934,
            -0.02462563675895634,
            -0.021783920280649332,
            0.825080401573794,
            0.872886476235621,
            1.2349506407244266,
            1.6923452771047436,
            2.144945767039399,
            2.4828207960122275,
            2.5920887026372648,
            2.744308337185633,
            2.7848995247144743,
            9.524697919026572,
            9.633122363662018,
            9.720986431989559,
            9.731498165035093,
            9.775172605504382,
            9.791925515366062,
            10.086046088055136,
            10.182624331585691,
            10.215233608483084,
            10.297230736792178,
            29.386178212387023,
            29.45434264985293,
            29.471177512281095,
            29.524258698980653,
            29.56272834781396,
            30.050505646044876,
            30.135488322397876,
            30.189802662410568
        ]
    },
    "born_effective_charge": {
        "avg_abs_trace": 1.0469933333333334,
        "tensors": [
            [
                [
                    2.54308,
                    0.00047,
                    -0.03978
                ],
                [
                    0.0,
                    2.62815,
                    0.0
                ],
                [
                    -0.06036,
                    0.0005,
                    2.68109
                ]
            ],
            [
                [
                    2.54308,
                    -0.00047,
                    -0.03978
                ],
                [
                    0.0,
                    2.62841,
                    0.0
                ],
                [
                    -0.06036,
                    -0.0005,
                    2.68109
                ]
            ],
            [
                [
                    -0.98635,
                    -0.58961,
                    0.26818
                ],
                [
                    -0.52626,
                    -0.65589,
                    0.21545
                ],
                [
                    0.27726,
                    0.203,
                    -0.30018
                ]
            ],
            [
                [
                    -0.98403,
                    0.58813,
                    0.2671
                ],
                [
                    0.52626,
                    -0.65589,
                    -0.21545
                ],
                [
                    0.27951,
                    -0.20419,
                    -0.30084
                ]
            ],
            [
                [
                    -0.98403,
                    -0.58813,
                    0.2671
                ],
                [
                    -0.52682,
                    -0.65717,
                    0.21546
                ],
                [
                    0.27951,
                    0.20419,
                    -0.30084
                ]
            ],
            [
                [
                    -0.98635,
                    0.58961,
                    0.26818
                ],
                [
                    0.52682,
                    -0.65717,
                    -0.21546
                ],
                [
                    0.27726,
                    -0.203,
                    -0.30018
                ]
            ],
            [
                [
                    -0.28598,
                    0.17936,
                    -0.24655
                ],
                [
                    0.17846,
                    -0.65782,
                    0.55268
                ],
                [
                    -0.24792,
                    0.59066,
                    -1.03896
                ]
            ],
            [
                [
                    -0.28672,
                    -0.18112,
                    -0.24896
                ],
                [
                    -0.17846,
                    -0.65782,
                    -0.55268
                ],
                [
                    -0.24849,
                    -0.59231,
                    -1.04111
                ]
            ],
            [
                [
                    -0.28672,
                    0.18112,
                    -0.24896
                ],
                [
                    0.17873,
                    -0.6574,
                    0.55293
                ],
                [
                    -0.24849,
                    0.59231,
                    -1.04111
                ]
            ],
            [
                [
                    -0.28598,
                    -0.17936,
                    -0.24655
                ],
                [
                    -0.17873,
                    -0.6574,
                    -0.55293
                ],
                [
                    -0.24792,
                    -0.59066,
                    -1.03896
                ]
            ]
        ]
    },
    "band_gap": 3.4095,
    "is_direct": false,
    "formula": "OsO4"
}