{
    "mp_id": "mp-561023",
    "nelements": 4,
    "nsites": 34,
    "elements": [
        "Cd",
        "Mo",
        "O",
        "Th"
    ],
    "structure": {
        "@module": "pymatgen.core.structure",
        "@class": "Structure",
        "charge": null,
        "lattice": {
            "matrix": [
                [
                    9.94441356,
                    2e-07,
                    0.0
                ],
                [
                    -4.97220745,
                    8.61211478,
                    0.0
                ],
                [
                    0.0,
                    0.0,
                    6.44982778
                ]
            ],
            "a": 9.944413560000001,
            "b": 9.94441390478745,
            "c": 6.44982778,
            "alpha": 90.0,
            "beta": 90.0,
            "gamma": 120.00000215821773,
            "volume": 552.3789370148891
        },
        "sites": [
            {
                "species": [
                    {
                        "element": "Th",
                        "occu": 1
                    }
                ],
                "abc": [
                    0.666667,
                    0.333333,
                    0.75
                ],
                "xyz": [
                    4.97221152887367,
                    2.87070218929514,
                    4.837370835
                ],
                "label": "Th",
                "properties": {}
            },
            {
                "species": [
                    {
                        "element": "Th",
                        "occu": 1
                    }
                ],
                "abc": [
                    0.333333,
                    0.666667,
                    0.25
                ],
                "xyz": [
                    -5.418873670226532e-06,
                    5.741412790704861,
                    1.612456945
                ],
                "label": "Th",
                "properties": {}
            },
            {
                "species": [
                    {
                        "element": "Cd",
                        "occu": 1
                    }
                ],
                "abc": [
                    0.0,
                    0.0,
                    0.0
                ],
                "xyz": [
                    0.0,
                    0.0,
                    0.0
                ],
                "label": "Cd",
                "properties": {}
            },
            {
                "species": [
                    {
                        "element": "Cd",
                        "occu": 1
                    }
                ],
                "abc": [
                    0.0,
                    0.0,
                    0.5
                ],
                "xyz": [
                    0.0,
                    0.0,
                    3.22491389
                ],
                "label": "Cd",
                "properties": {}
            },
            {
                "species": [
                    {
                        "element": "Mo",
                        "occu": 1
                    }
                ],
                "abc": [
                    0.61616422,
                    0.71311412,
                    0.75
                ],
                "xyz": [
                    2.581640484390629,
                    6.141420775911538,
                    4.837370835
                ],
                "label": "Mo",
                "properties": {}
            },
            {
                "species": [
                    {
                        "element": "Mo",
                        "occu": 1
                    }
                ],
                "abc": [
                    0.9030491,
                    0.61616422,
                    0.25
                ],
                "xyz": [
                    5.916597390278357,
                    5.3064771665789925,
                    1.612456945
                ],
                "label": "Mo",
                "properties": {}
            },
            {
                "species": [
                    {
                        "element": "Mo",
                        "occu": 1
                    }
                ],
                "abc": [
                    0.28688588,
                    0.9030491,
                    0.75
                ],
                "xyz": [
                    -1.6372356274912625,
                    7.777162558552875,
                    4.837370835
                ],
                "label": "Mo",
                "properties": {}
            },
            {
                "species": [
                    {
                        "element": "Mo",
                        "occu": 1
                    }
                ],
                "abc": [
                    0.0969509,
                    0.38383578,
                    0.75
                ],
                "xyz": [
                    -0.9443912802783571,
                    3.3056378134210087,
                    4.837370835
                ],
                "label": "Mo",
                "properties": {}
            },
            {
                "species": [
                    {
                        "element": "Mo",
                        "occu": 1
                    }
                ],
                "abc": [
                    0.38383578,
                    0.28688588,
                    0.25
                ],
                "xyz": [
                    2.390565625609371,
                    2.4706942040884625,
                    1.612456945
                ],
                "label": "Mo",
                "properties": {}
            },
            {
                "species": [
                    {
                        "element": "Mo",
                        "occu": 1
                    }
                ],
                "abc": [
                    0.71311412,
                    0.0969509,
                    0.25
                ],
                "xyz": [
                    6.609441737491261,
                    0.8349524214471261,
                    1.612456945
                ],
                "label": "Mo",
                "properties": {}
            },
            {
                "species": [
                    {
                        "element": "O",
                        "occu": 1
                    }
                ],
                "abc": [
                    0.21513282,
                    0.46272721,
                    0.97334435
                ],
                "xyz": [
                    -0.16140594847067558,
                    3.985059887375728,
                    6.277903428136042
                ],
                "label": "O",
                "properties": {}
            },
            {
                "species": [
                    {
                        "element": "O",
                        "occu": 1
                    }
                ],
                "abc": [
                    0.98453246,
                    0.82618745,
                    0.25
                ],
                "xyz": [
                    5.682622551497654,
                    7.115221346102004,
                    1.612456945
                ],
                "label": "O",
                "properties": {}
            },
            {
                "species": [
                    {
                        "element": "O",
                        "occu": 1
                    }
                ],
                "abc": [
                    0.46272721,
                    0.24759439,
                    0.02665565
                ],
                "xyz": [
                    3.370460071168762,
                    2.1323113981095263,
                    0.171924351863957
                ],
                "label": "O",
                "properties": {}
            },
            {
                "species": [
                    {
                        "element": "O",
                        "occu": 1
                    }
                ],
                "abc": [
                    0.75240561,
                    0.21513282,
                    0.02665565
                ],
                "xyz": [
                    6.412547540360562,
                    1.8527486892662017,
                    0.171924351863957
                ],
                "label": "O",
                "properties": {}
            },
            {
                "species": [
                    {
                        "element": "O",
                        "occu": 1
                    }
                ],
                "abc": [
                    0.75240561,
                    0.21513282,
                    0.47334435
                ],
                "xyz": [
                    6.412547540360562,
                    1.8527486892662017,
                    3.052989538136043
                ],
                "label": "O",
                "properties": {}
            },
            {
                "species": [
                    {
                        "element": "O",
                        "occu": 1
                    }
                ],
                "abc": [
                    0.44029804,
                    0.48619403,
                    0.25
                ],
                "xyz": [
                    1.9610482213058984,
                    4.187158879770371,
                    1.612456945
                ],
                "label": "O",
                "properties": {}
            },
            {
                "species": [
                    {
                        "element": "O",
                        "occu": 1
                    }
                ],
                "abc": [
                    0.01546754,
                    0.17381255,
                    0.75
                ],
                "xyz": [
                    -0.7104164414976551,
                    1.496893633897997,
                    4.837370835
                ],
                "label": "O",
                "properties": {}
            },
            {
                "species": [
                    {
                        "element": "O",
                        "occu": 1
                    }
                ],
                "abc": [
                    0.15834601,
                    0.98453246,
                    0.75
                ],
                "xyz": [
                    -3.3206414233629316,
                    8.478906581824962,
                    4.837370835
                ],
                "label": "O",
                "properties": {}
            },
            {
                "species": [
                    {
                        "element": "O",
                        "occu": 1
                    }
                ],
                "abc": [
                    0.53727279,
                    0.75240561,
                    0.52665565
                ],
                "xyz": [
                    1.6017460388312368,
                    6.479803581890474,
                    3.396838241863957
                ],
                "label": "O",
                "properties": {}
            },
            {
                "species": [
                    {
                        "element": "O",
                        "occu": 1
                    }
                ],
                "abc": [
                    0.24759439,
                    0.78486718,
                    0.97334435
                ],
                "xyz": [
                    -1.4403414303605628,
                    6.759366290733799,
                    6.277903428136042
                ],
                "label": "O",
                "properties": {}
            },
            {
                "species": [
                    {
                        "element": "O",
                        "occu": 1
                    }
                ],
                "abc": [
                    0.24759439,
                    0.78486718,
                    0.52665565
                ],
                "xyz": [
                    -1.4403414303605628,
                    6.759366290733799,
                    3.396838241863957
                ],
                "label": "O",
                "properties": {}
            },
            {
                "species": [
                    {
                        "element": "O",
                        "occu": 1
                    }
                ],
                "abc": [
                    0.53727279,
                    0.75240561,
                    0.97334435
                ],
                "xyz": [
                    1.6017460388312368,
                    6.479803581890474,
                    6.277903428136042
                ],
                "label": "O",
                "properties": {}
            },
            {
                "species": [
                    {
                        "element": "O",
                        "occu": 1
                    }
                ],
                "abc": [
                    0.95410401,
                    0.44029804,
                    0.75
                ],
                "xyz": [
                    7.298751659985976,
                    3.7918974487098334,
                    4.837370835
                ],
                "label": "O",
                "properties": {}
            },
            {
                "species": [
                    {
                        "element": "O",
                        "occu": 1
                    }
                ],
                "abc": [
                    0.17381255,
                    0.15834601,
                    0.25
                ],
                "xyz": [
                    0.9411346685184033,
                    1.363694047837538,
                    1.612456945
                ],
                "label": "O",
                "properties": {}
            },
            {
                "species": [
                    {
                        "element": "O",
                        "occu": 1
                    }
                ],
                "abc": [
                    0.04589599,
                    0.55970196,
                    0.25
                ],
                "xyz": [
                    -2.326545549985978,
                    4.820217531290168,
                    1.612456945
                ],
                "label": "O",
                "properties": {}
            },
            {
                "species": [
                    {
                        "element": "O",
                        "occu": 1
                    }
                ],
                "abc": [
                    0.48619403,
                    0.04589599,
                    0.75
                ],
                "xyz": [
                    4.606710121319922,
                    0.39526163106053824,
                    4.837370835
                ],
                "label": "O",
                "properties": {}
            },
            {
                "species": [
                    {
                        "element": "O",
                        "occu": 1
                    }
                ],
                "abc": [
                    0.51380597,
                    0.95410401,
                    0.25
                ],
                "xyz": [
                    0.3654959886800775,
                    8.216853348939463,
                    1.612456945
                ],
                "label": "O",
                "properties": {}
            },
            {
                "species": [
                    {
                        "element": "O",
                        "occu": 1
                    }
                ],
                "abc": [
                    0.78486718,
                    0.53727279,
                    0.47334435
                ],
                "xyz": [
                    5.133612058470675,
                    4.627055092624272,
                    3.052989538136043
                ],
                "label": "O",
                "properties": {}
            },
            {
                "species": [
                    {
                        "element": "O",
                        "occu": 1
                    }
                ],
                "abc": [
                    0.78486718,
                    0.53727279,
                    0.02665565
                ],
                "xyz": [
                    5.133612058470675,
                    4.627055092624272,
                    0.171924351863957
                ],
                "label": "O",
                "properties": {}
            },
            {
                "species": [
                    {
                        "element": "O",
                        "occu": 1
                    }
                ],
                "abc": [
                    0.55970196,
                    0.51380597,
                    0.75
                ],
                "xyz": [
                    3.0111578886941013,
                    4.424956100229629,
                    4.837370835
                ],
                "label": "O",
                "properties": {}
            },
            {
                "species": [
                    {
                        "element": "O",
                        "occu": 1
                    }
                ],
                "abc": [
                    0.82618745,
                    0.84165399,
                    0.75
                ],
                "xyz": [
                    4.031071441481597,
                    7.248420932162463,
                    4.837370835
                ],
                "label": "O",
                "properties": {}
            },
            {
                "species": [
                    {
                        "element": "O",
                        "occu": 1
                    }
                ],
                "abc": [
                    0.21513282,
                    0.46272721,
                    0.52665565
                ],
                "xyz": [
                    -0.16140594847067558,
                    3.985059887375728,
                    3.396838241863957
                ],
                "label": "O",
                "properties": {}
            },
            {
                "species": [
                    {
                        "element": "O",
                        "occu": 1
                    }
                ],
                "abc": [
                    0.84165399,
                    0.01546754,
                    0.25
                ],
                "xyz": [
                    8.29284753336293,
                    0.1332083981750392,
                    1.612456945
                ],
                "label": "O",
                "properties": {}
            },
            {
                "species": [
                    {
                        "element": "O",
                        "occu": 1
                    }
                ],
                "abc": [
                    0.46272721,
                    0.24759439,
                    0.47334435
                ],
                "xyz": [
                    3.370460071168762,
                    2.1323113981095263,
                    3.052989538136043
                ],
                "label": "O",
                "properties": {}
            }
        ]
    },
    "spacegroup": {
        "source": "spglib",
        "symbol": "P6_3/m",
        "number": 176,
        "point_group": "6/m",
        "crystal_system": "hexagonal",
        "hall": "-P 6c"
    },
    "dielectric": {
        "epsilon_ionic": [
            [
                5.90504596,
                -0.00025759,
                1e-08
            ],
            [
                -0.00025759,
                5.90512606,
                2e-08
            ],
            [
                1e-08,
                2e-08,
                6.11637289
            ]
        ],
        "epsilon_ionic_avg": 5.975514970000002,
        "epsilon_ionic_eig": [
            5.904825325112443,
            5.905346694887558,
            6.116372890000003
        ],
        "epsilon_electronic": [
            [
                3.94623892,
                4.063e-05,
                0.0
            ],
            [
                -4.063e-05,
                3.94623878,
                0.0
            ],
            [
                -0.0,
                -0.0,
                3.97253595
            ]
        ],
        "epsilon_electronic_avg": 3.9550045499999995,
        "epsilon_electronic_eig": [
            3.9462388499999994,
            3.9462388499999994,
            3.97253595
        ]
    },
    "phonon": {
        "lowest_freq": -0.05355420953595413,
        "frequency": [
            -0.05355420953595413,
            -0.04355096687455123,
            -0.04355096611695569,
            1.7448556466006964,
            1.7448556536041449,
            1.8184854250390758,
            1.9452697279195061,
            1.9452697404833232,
            2.2755185357184784,
            2.341998372584557,
            2.3419984038911705,
            2.5487457268628217,
            2.548745755629928,
            2.627681995113835,
            2.8267064622401796,
            2.8267064968246167,
            3.1270027583869275,
            3.1270027583869275,
            3.262793266356363,
            3.3393086283219278,
            3.3393086612569065,
            3.668276673297301,
            3.734936721545625,
            3.7349367313610573,
            4.1010482378967685,
            4.166451066574603,
            4.166451092971184,
            4.2786437692492525,
            4.509905728893302,
            4.509905791213929,
            4.519217552629696,
            4.573010363889638,
            4.673253880154539,
            4.858945528169899,
            4.858945548289502,
            5.103881106242333,
            5.194344081173137,
            5.194344104698738,
            5.492904318903216,
            6.137360736495604,
            6.137360756406453,
            6.3857195415676875,
            6.385719560704147,
            6.521958236724995,
            6.521958255461709,
            6.78899054305934,
            6.842944299294871,
            7.1891385424881955,
            8.142470435753882,
            8.14247045076162,
            8.397099293076334,
            8.39709933673429,
            8.516895893726103,
            8.51689592242202,
            8.597838205101333,
            8.730424241475617,
            8.919994802275161,
            9.11102953910709,
            9.111029565931734,
            9.2463627571072,
            9.246362823187273,
            9.279000939215049,
            9.290289221755794,
            9.415307276164274,
            9.415307289143145,
            9.593087628880482,
            10.045001093700835,
            10.045001118031356,
            10.116343764202254,
            10.116343812520132,
            10.214760455433318,
            10.295974117470486,
            10.480020474855724,
            10.480020498176302,
            10.564619694222895,
            10.570762855261728,
            10.570762866821921,
            11.533127012624815,
            21.734940470851825,
            21.734940639520424,
            22.32393830931461,
            22.32393847353303,
            23.72112787674193,
            23.82322708910471,
            24.334774341798916,
            24.334774392015145,
            24.582523281616805,
            24.582523331326943,
            24.812092616321273,
            24.82084815203916,
            24.820848250504824,
            24.933590705612286,
            24.933590852642933,
            25.119898075700476,
            26.202964983763344,
            27.206320296447444,
            27.400696195618693,
            27.400696195618693,
            27.45422727274671,
            27.454227317257185,
            28.523825722440648,
            28.727584286903227
        ]
    },
    "born_effective_charge": {
        "avg_abs_trace": 2.62463568627451,
        "tensors": [
            [
                [
                    7.01139,
                    1.35084,
                    0.0
                ],
                [
                    -1.35029,
                    7.01189,
                    0.0
                ],
                [
                    -0.0,
                    0.0,
                    8.2186
                ]
            ],
            [
                [
                    7.00627,
                    1.35171,
                    0.0
                ],
                [
                    -1.35302,
                    7.00771,
                    0.0
                ],
                [
                    -0.0,
                    0.0,
                    8.2186
                ]
            ],
            [
                [
                    2.89694,
                    0.22393,
                    0.00027
                ],
                [
                    -0.22417,
                    2.89639,
                    -0.00047
                ],
                [
                    -0.0,
                    0.0,
                    2.61819
                ]
            ],
            [
                [
                    2.89694,
                    0.22393,
                    -0.00027
                ],
                [
                    -0.22417,
                    2.89639,
                    0.00047
                ],
                [
                    -0.0,
                    0.0,
                    2.61819
                ]
            ],
            [
                [
                    4.31298,
                    -0.46626,
                    0.0
                ],
                [
                    0.63714,
                    3.93638,
                    0.0
                ],
                [
                    0.00043,
                    -5e-05,
                    3.84529
                ]
            ],
            [
                [
                    3.95807,
                    -0.4317,
                    0.0
                ],
                [
                    0.67051,
                    4.29097,
                    0.0
                ],
                [
                    0.00026,
                    0.00035,
                    3.84529
                ]
            ],
            [
                [
                    4.1044,
                    -0.75871,
                    0.0
                ],
                [
                    0.34703,
                    4.14221,
                    0.0
                ],
                [
                    -0.00017,
                    0.0004,
                    3.84529
                ]
            ],
            [
                [
                    3.95555,
                    -0.43137,
                    0.0
                ],
                [
                    0.67259,
                    4.29362,
                    0.0
                ],
                [
                    -0.00026,
                    -0.00035,
                    3.84529
                ]
            ],
            [
                [
                    4.31034,
                    -0.46676,
                    0.0
                ],
                [
                    0.63465,
                    3.9376,
                    0.0
                ],
                [
                    -0.00043,
                    5e-05,
                    3.84529
                ]
            ],
            [
                [
                    4.10364,
                    -0.75556,
                    0.0
                ],
                [
                    0.34796,
                    4.14142,
                    0.0
                ],
                [
                    0.00017,
                    -0.0004,
                    3.84529
                ]
            ],
            [
                [
                    -1.10507,
                    -0.5508,
                    -0.91105
                ],
                [
                    -0.49416,
                    -1.61116,
                    -1.49348
                ],
                [
                    -0.9243,
                    -1.36391,
                    -2.85015
                ]
            ],
            [
                [
                    -0.87769,
                    0.72476,
                    0.0
                ],
                [
                    0.61618,
                    -3.81113,
                    0.0
                ],
                [
                    2e-05,
                    7e-05,
                    -1.02498
                ]
            ],
            [
                [
                    -1.93776,
                    0.01389,
                    1.7491
                ],
                [
                    0.0706,
                    -0.77899,
                    -0.04222
                ],
                [
                    1.64376,
                    -0.11868,
                    -2.85026
                ]
            ],
            [
                [
                    -1.03213,
                    0.45256,
                    -0.83825
                ],
                [
                    0.50864,
                    -1.68382,
                    1.53489
                ],
                [
                    -0.7191,
                    1.48288,
                    -2.85026
                ]
            ],
            [
                [
                    -1.03213,
                    0.45256,
                    0.83825
                ],
                [
                    0.50864,
                    -1.68382,
                    -1.53489
                ],
                [
                    0.71902,
                    -1.48242,
                    -2.85015
                ]
            ],
            [
                [
                    -1.5075,
                    1.35775,
                    0.0
                ],
                [
                    1.29993,
                    -3.22262,
                    0.0
                ],
                [
                    -0.00011,
                    -0.00016,
                    -0.73216
                ]
            ],
            [
                [
                    -0.87773,
                    0.72435,
                    0.0
                ],
                [
                    0.6165,
                    -3.81438,
                    0.0
                ],
                [
                    -2e-05,
                    -7e-05,
                    -1.02498
                ]
            ],
            [
                [
                    -3.66057,
                    0.9899,
                    0.0
                ],
                [
                    0.88099,
                    -1.03,
                    0.0
                ],
                [
                    -5e-05,
                    5e-05,
                    -1.02498
                ]
            ],
            [
                [
                    -1.93728,
                    0.01391,
                    -1.74902
                ],
                [
                    0.07125,
                    -0.77904,
                    0.04257
                ],
                [
                    -1.64376,
                    0.11868,
                    -2.85026
                ]
            ],
            [
                [
                    -1.03179,
                    0.45222,
                    -0.83806
                ],
                [
                    0.50845,
                    -1.68416,
                    1.53518
                ],
                [
                    -0.71902,
                    1.48242,
                    -2.85015
                ]
            ],
            [
                [
                    -1.03179,
                    0.45222,
                    0.83806
                ],
                [
                    0.50845,
                    -1.68416,
                    -1.53518
                ],
                [
                    0.7191,
                    -1.48288,
                    -2.85026
                ]
            ],
            [
                [
                    -1.93728,
                    0.01391,
                    1.74902
                ],
                [
                    0.07125,
                    -0.77904,
                    -0.04257
                ],
                [
                    1.64333,
                    -0.11852,
                    -2.85015
                ]
            ],
            [
                [
                    -3.94331,
                    0.10649,
                    0.0
                ],
                [
                    0.04798,
                    -0.78651,
                    0.0
                ],
                [
                    8e-05,
                    -0.00018,
                    -0.73216
                ]
            ],
            [
                [
                    -2.49695,
                    -1.55152,
                    0.0
                ],
                [
                    -1.65852,
                    -2.19096,
                    0.0
                ],
                [
                    -7e-05,
                    -2e-05,
                    -1.02498
                ]
            ],
            [
                [
                    -3.94399,
                    0.10698,
                    0.0
                ],
                [
                    0.04928,
                    -0.78585,
                    0.0
                ],
                [
                    -8e-05,
                    0.00018,
                    -0.73216
                ]
            ],
            [
                [
                    -1.64217,
                    -1.37685,
                    0.0
                ],
                [
                    -1.43499,
                    -3.08582,
                    0.0
                ],
                [
                    -0.00019,
                    2e-05,
                    -0.73216
                ]
            ],
            [
                [
                    -1.64244,
                    -1.37785,
                    0.0
                ],
                [
                    -1.43439,
                    -3.08527,
                    0.0
                ],
                [
                    0.00019,
                    -2e-05,
                    -0.73216
                ]
            ],
            [
                [
                    -1.10532,
                    -0.55098,
                    0.91102
                ],
                [
                    -0.49463,
                    -1.61187,
                    1.49357
                ],
                [
                    0.9243,
                    1.36391,
                    -2.85015
                ]
            ],
            [
                [
                    -1.10532,
                    -0.55098,
                    -0.91102
                ],
                [
                    -0.49463,
                    -1.61187,
                    -1.49357
                ],
                [
                    -0.92466,
                    -1.3642,
                    -2.85026
                ]
            ],
            [
                [
                    -1.50822,
                    1.35828,
                    0.0
                ],
                [
                    1.29885,
                    -3.22189,
                    0.0
                ],
                [
                    0.00011,
                    0.00016,
                    -0.73216
                ]
            ],
            [
                [
                    -2.49871,
                    -1.5529,
                    0.0
                ],
                [
                    -1.66046,
                    -2.19215,
                    0.0
                ],
                [
                    7e-05,
                    2e-05,
                    -1.02498
                ]
            ],
            [
                [
                    -1.10507,
                    -0.5508,
                    0.91105
                ],
                [
                    -0.49416,
                    -1.61116,
                    1.49348
                ],
                [
                    0.92466,
                    1.3642,
                    -2.85026
                ]
            ],
            [
                [
                    -3.65855,
                    0.98899,
                    0.0
                ],
                [
                    0.88012,
                    -1.02993,
                    0.0
                ],
                [
                    5e-05,
                    -5e-05,
                    -1.02498
                ]
            ],
            [
                [
                    -1.93776,
                    0.01389,
                    -1.7491
                ],
                [
                    0.0706,
                    -0.77899,
                    0.04222
                ],
                [
                    -1.64333,
                    0.11852,
                    -2.85015
                ]
            ]
        ]
    },
    "band_gap": 3.6020000000000003,
    "is_direct": false,
    "formula": "ThCd(MoO4)3"
}