{
    "mp_id": "mp-556489",
    "nelements": 3,
    "nsites": 18,
    "elements": [
        "O",
        "Sn",
        "Ta"
    ],
    "structure": {
        "@module": "pymatgen.core.structure",
        "@class": "Structure",
        "charge": null,
        "lattice": {
            "matrix": [
                [
                    8.62790652,
                    -2.43946234,
                    0.00039058
                ],
                [
                    8.62790652,
                    2.43946234,
                    0.00039058
                ],
                [
                    -0.13852026,
                    0.0,
                    5.55890055
                ]
            ],
            "a": 8.96614452140325,
            "b": 8.96614452140325,
            "c": 5.560626150643538,
            "alpha": 91.37108280411427,
            "beta": 91.37108280411427,
            "gamma": 31.575538648887015,
            "volume": 234.0016603989984
        },
        "sites": [
            {
                "species": [
                    {
                        "element": "Ta",
                        "occu": 1
                    }
                ],
                "abc": [
                    0.58400742,
                    0.07647606,
                    0.84543876
                ],
                "xyz": [
                    5.581479326595012,
                    -1.2381036390889824,
                    4.699967959592937
                ],
                "label": "Ta",
                "properties": {}
            },
            {
                "species": [
                    {
                        "element": "Ta",
                        "occu": 1
                    }
                ],
                "abc": [
                    0.07647606,
                    0.58400742,
                    0.34543876
                ],
                "xyz": [
                    5.650739456595012,
                    1.2381036390889824,
                    1.9205176845929364
                ],
                "label": "Ta",
                "properties": {}
            },
            {
                "species": [
                    {
                        "element": "Ta",
                        "occu": 1
                    }
                ],
                "abc": [
                    0.92352394,
                    0.41599258,
                    0.65456124
                ],
                "xyz": [
                    11.466553323404987,
                    -1.2381036390889826,
                    3.6391640254070636
                ],
                "label": "Ta",
                "properties": {}
            },
            {
                "species": [
                    {
                        "element": "Ta",
                        "occu": 1
                    }
                ],
                "abc": [
                    0.41599258,
                    0.92352394,
                    0.15456124
                ],
                "xyz": [
                    11.535813453404987,
                    1.2381036390889826,
                    0.8597137504070635
                ],
                "label": "Ta",
                "properties": {}
            },
            {
                "species": [
                    {
                        "element": "Sn",
                        "occu": 1
                    }
                ],
                "abc": [
                    0.76670004,
                    0.23329996,
                    0.25
                ],
                "xyz": [
                    8.593276455,
                    -1.3012094073129874,
                    1.3901157174999998
                ],
                "label": "Sn",
                "properties": {}
            },
            {
                "species": [
                    {
                        "element": "Sn",
                        "occu": 1
                    }
                ],
                "abc": [
                    0.23329996,
                    0.76670004,
                    0.75
                ],
                "xyz": [
                    8.524016325,
                    1.3012094073129874,
                    4.1695659925
                ],
                "label": "Sn",
                "properties": {}
            },
            {
                "species": [
                    {
                        "element": "O",
                        "occu": 1
                    }
                ],
                "abc": [
                    0.59690849,
                    0.68645208,
                    0.42918653
                ],
                "xyz": [
                    11.01326399968982,
                    0.2184382155934006,
                    2.386306492641022
                ],
                "label": "O",
                "properties": {}
            },
            {
                "species": [
                    {
                        "element": "O",
                        "occu": 1
                    }
                ],
                "abc": [
                    0.40309151,
                    0.31354792,
                    0.57081347
                ],
                "xyz": [
                    6.1040287803101805,
                    -0.2184382155934006,
                    3.173375217358978
                ],
                "label": "O",
                "properties": {}
            },
            {
                "species": [
                    {
                        "element": "O",
                        "occu": 1
                    }
                ],
                "abc": [
                    0.84459828,
                    0.71750502,
                    0.64769054
                ],
                "xyz": [
                    13.387962984983176,
                    -0.31003922143782825,
                    3.601057425342711
                ],
                "label": "O",
                "properties": {}
            },
            {
                "species": [
                    {
                        "element": "O",
                        "occu": 1
                    }
                ],
                "abc": [
                    0.68645208,
                    0.59690849,
                    0.92918653
                ],
                "xyz": [
                    10.94400386968982,
                    -0.2184382155934006,
                    5.165756767641022
                ],
                "label": "O",
                "properties": {}
            },
            {
                "species": [
                    {
                        "element": "O",
                        "occu": 1
                    }
                ],
                "abc": [
                    0.00639884,
                    0.84906899,
                    0.40973659
                ],
                "xyz": [
                    7.324139649128939,
                    2.055662095967151,
                    2.2780190841311656
                ],
                "label": "O",
                "properties": {}
            },
            {
                "species": [
                    {
                        "element": "O",
                        "occu": 1
                    }
                ],
                "abc": [
                    0.99360116,
                    0.15093101,
                    0.59026341
                ],
                "xyz": [
                    9.793153130871062,
                    -2.055662095967151,
                    3.281662625868834
                ],
                "label": "O",
                "properties": {}
            },
            {
                "species": [
                    {
                        "element": "O",
                        "occu": 1
                    }
                ],
                "abc": [
                    0.84906899,
                    0.00639884,
                    0.90973659
                ],
                "xyz": [
                    7.254879519128939,
                    -2.055662095967151,
                    5.057469359131166
                ],
                "label": "O",
                "properties": {}
            },
            {
                "species": [
                    {
                        "element": "O",
                        "occu": 1
                    }
                ],
                "abc": [
                    0.15540172,
                    0.28249498,
                    0.35230946
                ],
                "xyz": [
                    3.7293297950168247,
                    0.3100392214378284,
                    1.958624284657289
                ],
                "label": "O",
                "properties": {}
            },
            {
                "species": [
                    {
                        "element": "O",
                        "occu": 1
                    }
                ],
                "abc": [
                    0.15093101,
                    0.99360116,
                    0.09026341
                ],
                "xyz": [
                    9.862413260871062,
                    2.055662095967151,
                    0.5022123508688341
                ],
                "label": "O",
                "properties": {}
            },
            {
                "species": [
                    {
                        "element": "O",
                        "occu": 1
                    }
                ],
                "abc": [
                    0.71750502,
                    0.84459828,
                    0.14769054
                ],
                "xyz": [
                    13.457223114983176,
                    0.31003922143782825,
                    0.821607150342711
                ],
                "label": "O",
                "properties": {}
            },
            {
                "species": [
                    {
                        "element": "O",
                        "occu": 1
                    }
                ],
                "abc": [
                    0.28249498,
                    0.15540172,
                    0.85230946
                ],
                "xyz": [
                    3.6600696650168247,
                    -0.3100392214378284,
                    4.738074559657288
                ],
                "label": "O",
                "properties": {}
            },
            {
                "species": [
                    {
                        "element": "O",
                        "occu": 1
                    }
                ],
                "abc": [
                    0.31354792,
                    0.40309151,
                    0.07081347
                ],
                "xyz": [
                    6.1732889103101805,
                    0.2184382155934006,
                    0.3939249423589779
                ],
                "label": "O",
                "properties": {}
            }
        ]
    },
    "spacegroup": {
        "source": "spglib",
        "symbol": "C2/c",
        "number": 15,
        "point_group": "2/m",
        "crystal_system": "monoclinic",
        "hall": "-C 2yc"
    },
    "dielectric": {
        "epsilon_ionic": [
            [
                28.96707206,
                -1e-08,
                15.11079701
            ],
            [
                -1e-08,
                19.78977368,
                2e-08
            ],
            [
                15.11079701,
                2e-08,
                34.80178118
            ]
        ],
        "epsilon_ionic_avg": 27.852875640000008,
        "epsilon_ionic_eig": [
            47.274265602464325,
            16.4945876375357,
            19.78977368
        ],
        "epsilon_electronic": [
            [
                5.97345326,
                0.0,
                0.41477242
            ],
            [
                0.0,
                5.6529407,
                0.0
            ],
            [
                0.41476776,
                0.0,
                6.14006649
            ]
        ],
        "epsilon_electronic_avg": 5.922153483333333,
        "epsilon_electronic_eig": [
            5.63370642724672,
            6.47981332275328,
            5.6529407
        ]
    },
    "phonon": {
        "lowest_freq": -0.05370990576831647,
        "frequency": [
            -0.05370990576831647,
            -0.039555443959162974,
            -0.01708694928031358,
            1.918971881470504,
            2.545027642438728,
            2.5497354491858486,
            2.8488472681706276,
            3.200658637371791,
            3.335447939388085,
            3.7679455700005735,
            3.7962108139955513,
            4.07488803999602,
            4.800519944127362,
            4.969886873240122,
            5.165078128217221,
            5.394780640669174,
            6.204837751344821,
            6.445226850758719,
            6.551143792923233,
            6.820926078288162,
            7.030206409306179,
            7.0935210390267835,
            7.113624863619336,
            7.4123449828819385,
            7.57277926671876,
            7.889636543480763,
            8.65817816937302,
            8.694634125596528,
            8.9512099116373,
            9.05358601800331,
            10.140262046675597,
            10.458064425532461,
            10.861792885409402,
            11.752440592654706,
            11.976272303397751,
            12.307726978374536,
            12.495923847749404,
            12.89338463519963,
            14.037673386263815,
            14.04553454796698,
            14.073638182768587,
            14.204725095940255,
            14.73805865407793,
            15.285765207320653,
            17.17029742210075,
            17.35183733215249,
            18.205910299789853,
            18.38977409894501,
            19.035830078045233,
            19.068357699778566,
            21.12554835241872,
            22.993152866668453,
            25.310142030194992,
            25.96369693661485
        ]
    },
    "born_effective_charge": {
        "avg_abs_trace": 3.984784814814814,
        "tensors": [
            [
                [
                    6.84069,
                    -0.13581,
                    0.30034
                ],
                [
                    0.36404,
                    7.21672,
                    -0.34276
                ],
                [
                    0.48575,
                    0.57021,
                    7.60018
                ]
            ],
            [
                [
                    6.84069,
                    0.13581,
                    0.30034
                ],
                [
                    -0.36402,
                    7.21671,
                    0.34251
                ],
                [
                    0.48575,
                    -0.57021,
                    7.60018
                ]
            ],
            [
                [
                    6.84071,
                    0.13598,
                    0.30033
                ],
                [
                    -0.36404,
                    7.21672,
                    0.34276
                ],
                [
                    0.48579,
                    -0.57023,
                    7.59974
                ]
            ],
            [
                [
                    6.84071,
                    -0.13598,
                    0.30033
                ],
                [
                    0.36402,
                    7.21671,
                    -0.34251
                ],
                [
                    0.48579,
                    0.57023,
                    7.59974
                ]
            ],
            [
                [
                    3.83286,
                    3e-05,
                    0.44625
                ],
                [
                    0.0,
                    3.29392,
                    0.0
                ],
                [
                    0.28103,
                    0.00089,
                    3.35317
                ]
            ],
            [
                [
                    3.83286,
                    -3e-05,
                    0.44625
                ],
                [
                    0.0,
                    3.29372,
                    0.0
                ],
                [
                    0.28103,
                    -0.00089,
                    3.35317
                ]
            ],
            [
                [
                    -1.57634,
                    -0.01977,
                    0.03883
                ],
                [
                    -0.25511,
                    -3.29244,
                    2.09129
                ],
                [
                    0.30458,
                    2.4359,
                    -4.14462
                ]
            ],
            [
                [
                    -1.57634,
                    -0.02004,
                    0.03888
                ],
                [
                    -0.25505,
                    -3.29247,
                    2.09136
                ],
                [
                    0.3043,
                    2.43633,
                    -4.14494
                ]
            ],
            [
                [
                    -3.2377,
                    -1.09531,
                    0.072
                ],
                [
                    -0.7766,
                    -3.03906,
                    -1.45074
                ],
                [
                    -0.24594,
                    -1.3914,
                    -2.96232
                ]
            ],
            [
                [
                    -1.57634,
                    0.01977,
                    0.03883
                ],
                [
                    0.25505,
                    -3.29247,
                    -2.09136
                ],
                [
                    0.30458,
                    -2.4359,
                    -4.14462
                ]
            ],
            [
                [
                    -3.94305,
                    -1.39738,
                    -0.63446
                ],
                [
                    -1.50966,
                    -2.53204,
                    0.29031
                ],
                [
                    -0.68452,
                    0.70271,
                    -2.16967
                ]
            ],
            [
                [
                    -3.94304,
                    -1.39751,
                    -0.63446
                ],
                [
                    -1.50983,
                    -2.53214,
                    0.29022
                ],
                [
                    -0.68475,
                    0.70189,
                    -2.16929
                ]
            ],
            [
                [
                    -3.94305,
                    1.39738,
                    -0.63446
                ],
                [
                    1.50983,
                    -2.53214,
                    -0.29022
                ],
                [
                    -0.68452,
                    -0.70271,
                    -2.16967
                ]
            ],
            [
                [
                    -3.23779,
                    -1.09517,
                    0.0723
                ],
                [
                    -0.77648,
                    -3.03909,
                    -1.45092
                ],
                [
                    -0.24623,
                    -1.39157,
                    -2.96225
                ]
            ],
            [
                [
                    -3.94304,
                    1.39751,
                    -0.63446
                ],
                [
                    1.50966,
                    -2.53204,
                    -0.29031
                ],
                [
                    -0.68475,
                    -0.70189,
                    -2.16929
                ]
            ],
            [
                [
                    -3.2377,
                    1.09531,
                    0.072
                ],
                [
                    0.77648,
                    -3.03909,
                    1.45092
                ],
                [
                    -0.24594,
                    1.3914,
                    -2.96232
                ]
            ],
            [
                [
                    -3.23779,
                    1.09517,
                    0.0723
                ],
                [
                    0.7766,
                    -3.03906,
                    1.45074
                ],
                [
                    -0.24623,
                    1.39157,
                    -2.96225
                ]
            ],
            [
                [
                    -1.57634,
                    0.02004,
                    0.03888
                ],
                [
                    0.25511,
                    -3.29244,
                    -2.09129
                ],
                [
                    0.3043,
                    -2.43633,
                    -4.14494
                ]
            ]
        ]
    },
    "band_gap": 2.1437,
    "is_direct": false,
    "formula": "Ta2SnO6"
}