{
    "mp_id": "mp-559571",
    "nelements": 3,
    "nsites": 32,
    "elements": [
        "B",
        "O",
        "Zr"
    ],
    "structure": {
        "@module": "pymatgen.core.structure",
        "@class": "Structure",
        "charge": null,
        "lattice": {
            "matrix": [
                [
                    4.42375525,
                    0.0,
                    -0.00045445
                ],
                [
                    0.0,
                    6.95762532,
                    0.0
                ],
                [
                    -0.15080639,
                    0.0,
                    9.02243481
                ]
            ],
            "a": 4.423755273342702,
            "b": 6.95762532,
            "c": 9.02369505623747,
            "alpha": 90.0,
            "beta": 90.96347283846946,
            "gamma": 90.0,
            "volume": 277.69952423585556
        },
        "sites": [
            {
                "species": [
                    {
                        "element": "Zr",
                        "occu": 1
                    }
                ],
                "abc": [
                    0.9983747,
                    0.88665627,
                    0.32857836
                ],
                "xyz": [
                    4.367013604288455,
                    6.169022114288756,
                    2.9641231216942967
                ],
                "label": "Zr",
                "properties": {}
            },
            {
                "species": [
                    {
                        "element": "Zr",
                        "occu": 1
                    }
                ],
                "abc": [
                    0.0016253,
                    0.38665627,
                    0.17142164
                ],
                "xyz": [
                    -0.0186615492884546,
                    2.6902094542887567,
                    1.5466398333057032
                ],
                "label": "Zr",
                "properties": {}
            },
            {
                "species": [
                    {
                        "element": "Zr",
                        "occu": 1
                    }
                ],
                "abc": [
                    0.0016253,
                    0.11334373,
                    0.67142164
                ],
                "xyz": [
                    -0.09406474428845463,
                    0.7886032057112436,
                    6.057857238305704
                ],
                "label": "Zr",
                "properties": {}
            },
            {
                "species": [
                    {
                        "element": "Zr",
                        "occu": 1
                    }
                ],
                "abc": [
                    0.9983747,
                    0.61334373,
                    0.82857836
                ],
                "xyz": [
                    4.291610409288455,
                    4.267415865711244,
                    7.475340526694296
                ],
                "label": "Zr",
                "properties": {}
            },
            {
                "species": [
                    {
                        "element": "B",
                        "occu": 1
                    }
                ],
                "abc": [
                    0.53498299,
                    0.58750997,
                    0.33458818
                ],
                "xyz": [
                    2.3161757751107275,
                    4.08767424302444,
                    3.0185569192267403
                ],
                "label": "B",
                "properties": {}
            },
            {
                "species": [
                    {
                        "element": "B",
                        "occu": 1
                    }
                ],
                "abc": [
                    0.52698034,
                    0.27022626,
                    0.9227507
                ],
                "xyz": [
                    2.1920753437848126,
                    1.8801330687049032,
                    8.325218550416354
                ],
                "label": "B",
                "properties": {}
            },
            {
                "species": [
                    {
                        "element": "B",
                        "occu": 1
                    }
                ],
                "abc": [
                    0.46501701,
                    0.41249003,
                    0.66541182
                ],
                "xyz": [
                    1.9567730848892726,
                    2.8699510769755596,
                    6.00342344077326
                ],
                "label": "B",
                "properties": {}
            },
            {
                "species": [
                    {
                        "element": "B",
                        "occu": 1
                    }
                ],
                "abc": [
                    0.47301966,
                    0.72977374,
                    0.0772493
                ],
                "xyz": [
                    2.0808735162151883,
                    5.077492251295096,
                    0.696761809583646
                ],
                "label": "B",
                "properties": {}
            },
            {
                "species": [
                    {
                        "element": "B",
                        "occu": 1
                    }
                ],
                "abc": [
                    0.53498299,
                    0.91249003,
                    0.83458818
                ],
                "xyz": [
                    2.2407725801107277,
                    6.34876373697556,
                    7.52977432422674
                ],
                "label": "B",
                "properties": {}
            },
            {
                "species": [
                    {
                        "element": "B",
                        "occu": 1
                    }
                ],
                "abc": [
                    0.47301966,
                    0.77022626,
                    0.5772493
                ],
                "xyz": [
                    2.005470321215188,
                    5.358945728704904,
                    5.207979214583646
                ],
                "label": "B",
                "properties": {}
            },
            {
                "species": [
                    {
                        "element": "B",
                        "occu": 1
                    }
                ],
                "abc": [
                    0.46501701,
                    0.08750997,
                    0.16541182
                ],
                "xyz": [
                    2.032176279889273,
                    0.6088615830244405,
                    1.4922060357732596
                ],
                "label": "B",
                "properties": {}
            },
            {
                "species": [
                    {
                        "element": "B",
                        "occu": 1
                    }
                ],
                "abc": [
                    0.52698034,
                    0.22977374,
                    0.4227507
                ],
                "xyz": [
                    2.2674785387848124,
                    1.5986795912950968,
                    3.814001145416354
                ],
                "label": "B",
                "properties": {}
            },
            {
                "species": [
                    {
                        "element": "O",
                        "occu": 1
                    }
                ],
                "abc": [
                    0.78620327,
                    0.40842211,
                    0.67837217
                ],
                "xyz": [
                    3.375667985195501,
                    2.8416480137838254,
                    6.120211390667187
                ],
                "label": "O",
                "properties": {}
            },
            {
                "species": [
                    {
                        "element": "O",
                        "occu": 1
                    }
                ],
                "abc": [
                    0.69346542,
                    0.6555874,
                    0.19325873
                ],
                "xyz": [
                    3.0385766410111703,
                    4.561331493712968,
                    1.7433491475282723
                ],
                "label": "O",
                "properties": {}
            },
            {
                "species": [
                    {
                        "element": "O",
                        "occu": 1
                    }
                ],
                "abc": [
                    0.66782925,
                    0.10393913,
                    0.85014387
                ],
                "xyz": [
                    2.8261060227757335,
                    0.7231695226267716,
                    7.670064151193452
                ],
                "label": "O",
                "properties": {}
            },
            {
                "species": [
                    {
                        "element": "O",
                        "occu": 1
                    }
                ],
                "abc": [
                    0.6516077,
                    0.72111672,
                    0.44685029
                ],
                "xyz": [
                    2.815165104710072,
                    5.017259949747351,
                    4.03138148823533
                ],
                "label": "O",
                "properties": {}
            },
            {
                "species": [
                    {
                        "element": "O",
                        "occu": 1
                    }
                ],
                "abc": [
                    0.3483923,
                    0.27888328,
                    0.55314971
                ],
                "xyz": [
                    1.457783755289928,
                    1.9403653702526498,
                    4.9905988717646705
                ],
                "label": "O",
                "properties": {}
            },
            {
                "species": [
                    {
                        "element": "O",
                        "occu": 1
                    }
                ],
                "abc": [
                    0.76676729,
                    0.40253277,
                    0.96646065
                ],
                "xyz": [
                    3.246242382962219,
                    2.8006721926817364,
                    8.719479753660286
                ],
                "label": "O",
                "properties": {}
            },
            {
                "species": [
                    {
                        "element": "O",
                        "occu": 1
                    }
                ],
                "abc": [
                    0.6516077,
                    0.77888328,
                    0.94685029
                ],
                "xyz": [
                    2.739761909710072,
                    5.419178030252649,
                    8.542598893235331
                ],
                "label": "O",
                "properties": {}
            },
            {
                "species": [
                    {
                        "element": "O",
                        "occu": 1
                    }
                ],
                "abc": [
                    0.21379673,
                    0.90842211,
                    0.82162783
                ],
                "xyz": [
                    0.8218776798044988,
                    6.320460673783825,
                    7.412986374332814
                ],
                "label": "O",
                "properties": {}
            },
            {
                "species": [
                    {
                        "element": "O",
                        "occu": 1
                    }
                ],
                "abc": [
                    0.76676729,
                    0.09746723,
                    0.46646065
                ],
                "xyz": [
                    3.3216455779622187,
                    0.6781404673182636,
                    4.208262348660286
                ],
                "label": "O",
                "properties": {}
            },
            {
                "species": [
                    {
                        "element": "O",
                        "occu": 1
                    }
                ],
                "abc": [
                    0.69346542,
                    0.8444126,
                    0.69325873
                ],
                "xyz": [
                    2.96317344601117,
                    5.875106486287032,
                    6.2545665525282725
                ],
                "label": "O",
                "properties": {}
            },
            {
                "species": [
                    {
                        "element": "O",
                        "occu": 1
                    }
                ],
                "abc": [
                    0.78620327,
                    0.09157789,
                    0.17837217
                ],
                "xyz": [
                    3.451071180195501,
                    0.6371646462161747,
                    1.6089939856671862
                ],
                "label": "O",
                "properties": {}
            },
            {
                "species": [
                    {
                        "element": "O",
                        "occu": 1
                    }
                ],
                "abc": [
                    0.30653458,
                    0.1555874,
                    0.30674127
                ],
                "xyz": [
                    1.3097754139888296,
                    1.0825188337129679,
                    2.7674138074717276
                ],
                "label": "O",
                "properties": {}
            },
            {
                "species": [
                    {
                        "element": "O",
                        "occu": 1
                    }
                ],
                "abc": [
                    0.3483923,
                    0.22111672,
                    0.05314971
                ],
                "xyz": [
                    1.533186950289928,
                    1.5384472897473502,
                    0.4793814667646701
                ],
                "label": "O",
                "properties": {}
            },
            {
                "species": [
                    {
                        "element": "O",
                        "occu": 1
                    }
                ],
                "abc": [
                    0.21379673,
                    0.59157789,
                    0.32162783
                ],
                "xyz": [
                    0.8972808748044988,
                    4.115977306216175,
                    2.9017689693328137
                ],
                "label": "O",
                "properties": {}
            },
            {
                "species": [
                    {
                        "element": "O",
                        "occu": 1
                    }
                ],
                "abc": [
                    0.66782925,
                    0.39606087,
                    0.35014387
                ],
                "xyz": [
                    2.9015092177757333,
                    2.7556431373732284,
                    3.1588467461934524
                ],
                "label": "O",
                "properties": {}
            },
            {
                "species": [
                    {
                        "element": "O",
                        "occu": 1
                    }
                ],
                "abc": [
                    0.33217075,
                    0.89606087,
                    0.14985613
                ],
                "xyz": [
                    1.446842837224267,
                    6.234455797373228,
                    1.3519162088065477
                ],
                "label": "O",
                "properties": {}
            },
            {
                "species": [
                    {
                        "element": "O",
                        "occu": 1
                    }
                ],
                "abc": [
                    0.23323271,
                    0.90253277,
                    0.53353935
                ],
                "xyz": [
                    0.951303282037781,
                    6.279484852681736,
                    4.813718011339714
                ],
                "label": "O",
                "properties": {}
            },
            {
                "species": [
                    {
                        "element": "O",
                        "occu": 1
                    }
                ],
                "abc": [
                    0.30653458,
                    0.3444126,
                    0.80674127
                ],
                "xyz": [
                    1.2343722189888298,
                    2.396293826287032,
                    7.278631212471727
                ],
                "label": "O",
                "properties": {}
            },
            {
                "species": [
                    {
                        "element": "O",
                        "occu": 1
                    }
                ],
                "abc": [
                    0.33217075,
                    0.60393913,
                    0.64985613
                ],
                "xyz": [
                    1.371439642224267,
                    4.201982182626772,
                    5.863133613806547
                ],
                "label": "O",
                "properties": {}
            },
            {
                "species": [
                    {
                        "element": "O",
                        "occu": 1
                    }
                ],
                "abc": [
                    0.23323271,
                    0.59746723,
                    0.03353935
                ],
                "xyz": [
                    1.026706477037781,
                    4.156953127318264,
                    0.30250060633971404
                ],
                "label": "O",
                "properties": {}
            }
        ]
    },
    "spacegroup": {
        "source": "spglib",
        "symbol": "P2_1/c",
        "number": 14,
        "point_group": "2/m",
        "crystal_system": "monoclinic",
        "hall": "-P 2ybc"
    },
    "dielectric": {
        "epsilon_ionic": [
            [
                7.3151997,
                0.0,
                -0.34384517
            ],
            [
                0.0,
                6.96294107,
                1e-08
            ],
            [
                -0.34384517,
                1e-08,
                6.29398593
            ]
        ],
        "epsilon_ionic_avg": 6.857375566666665,
        "epsilon_ionic_eig": [
            7.420181063703407,
            6.189004566296589,
            6.96294107
        ],
        "epsilon_electronic": [
            [
                4.08612528,
                0.0,
                -0.05733887
            ],
            [
                0.0,
                4.08247809,
                0.0
            ],
            [
                -0.05733807,
                0.0,
                4.03202597
            ]
        ],
        "epsilon_electronic_avg": 4.066876446666667,
        "epsilon_electronic_eig": [
            4.122474236793949,
            3.9956770132060506,
            4.08247809
        ]
    },
    "phonon": {
        "lowest_freq": -0.028760056657401712,
        "frequency": [
            -0.028760056657401712,
            -0.024266434070217686,
            -0.01458362819498898,
            4.380275202732658,
            4.820178487718723,
            4.934962869946622,
            5.0086148271764355,
            5.763956194504577,
            5.912534264989354,
            6.23995618673142,
            6.692514572740584,
            6.960468018774727,
            7.40951704158345,
            7.720656011050035,
            7.842056040970286,
            7.994611026114595,
            8.29096136484318,
            8.438242128373016,
            8.714614004316632,
            8.807750832227693,
            9.255138163232637,
            9.371268805348832,
            9.380165879589576,
            9.43980841075769,
            9.481925853557058,
            9.595243619107642,
            10.061382117838582,
            10.709219058425436,
            10.920884915907555,
            11.263950607364299,
            11.582726154246544,
            11.73956978747037,
            12.15734436477825,
            12.317766982499657,
            12.518530820269751,
            12.882716254708468,
            13.455893432507242,
            13.491419395770917,
            13.509885169293623,
            13.686496992056211,
            14.087802407230782,
            14.370452347598262,
            15.062194462097095,
            15.244895890072943,
            15.429059061525786,
            15.91866071454491,
            16.13583645406198,
            16.642658072483307,
            16.68618561078901,
            16.92211218522896,
            17.646539183753728,
            18.029838533086675,
            18.761387647031082,
            18.825899828217977,
            19.0518255080141,
            19.08725835468528,
            19.471335253806117,
            19.581958571022735,
            20.2266685689538,
            20.241780468011207,
            20.423966675626925,
            20.987288772001992,
            21.363533878735318,
            21.720497865149937,
            22.968296253306363,
            23.131899392642612,
            23.342851990091212,
            23.844806506243568,
            23.93835319155978,
            24.163582678189478,
            24.257732419852584,
            24.47261897117036,
            25.60317091266612,
            25.68314458084823,
            27.02458341231323,
            27.25079916478399,
            27.555265200763365,
            27.998022694592958,
            28.381224674784114,
            28.430573827346226,
            28.737735607713038,
            29.12605618152974,
            29.240829876252207,
            30.21516433341197,
            30.48635688768378,
            30.6622573869435,
            30.805354353050728,
            31.144491094230585,
            31.86276141621441,
            32.31219182073743,
            32.328541414243226,
            32.63206900273408,
            32.87458797798124,
            32.8772689809969,
            33.182969083616285,
            33.869029196318735
        ]
    },
    "born_effective_charge": {
        "avg_abs_trace": 2.50976375,
        "tensors": [
            [
                [
                    4.83689,
                    0.05592,
                    -0.21613
                ],
                [
                    -0.15131,
                    4.92201,
                    -0.11279
                ],
                [
                    -0.29112,
                    0.35795,
                    4.79514
                ]
            ],
            [
                [
                    4.83687,
                    -0.05597,
                    -0.2161
                ],
                [
                    0.15131,
                    4.92201,
                    0.11279
                ],
                [
                    -0.29098,
                    -0.35805,
                    4.7951
                ]
            ],
            [
                [
                    4.83687,
                    0.05597,
                    -0.2161
                ],
                [
                    -0.15102,
                    4.92271,
                    -0.11235
                ],
                [
                    -0.29098,
                    0.35805,
                    4.7951
                ]
            ],
            [
                [
                    4.83689,
                    -0.05592,
                    -0.21613
                ],
                [
                    0.15102,
                    4.92271,
                    0.11235
                ],
                [
                    -0.29112,
                    -0.35795,
                    4.79514
                ]
            ],
            [
                [
                    2.7469,
                    -0.08583,
                    -0.03612
                ],
                [
                    -0.11711,
                    2.51709,
                    0.19838
                ],
                [
                    0.22509,
                    0.22369,
                    2.08832
                ]
            ],
            [
                [
                    2.82267,
                    0.19716,
                    0.1166
                ],
                [
                    0.05708,
                    2.47077,
                    0.36199
                ],
                [
                    -0.00085,
                    0.40029,
                    2.9171
                ]
            ],
            [
                [
                    2.74688,
                    -0.08583,
                    -0.03612
                ],
                [
                    -0.11711,
                    2.517,
                    0.19842
                ],
                [
                    0.22509,
                    0.22369,
                    2.08832
                ]
            ],
            [
                [
                    2.82266,
                    0.19715,
                    0.1166
                ],
                [
                    0.0571,
                    2.47079,
                    0.36202
                ],
                [
                    -0.00089,
                    0.40028,
                    2.91712
                ]
            ],
            [
                [
                    2.7469,
                    0.08583,
                    -0.03612
                ],
                [
                    0.11711,
                    2.517,
                    -0.19842
                ],
                [
                    0.22509,
                    -0.22369,
                    2.08832
                ]
            ],
            [
                [
                    2.82266,
                    -0.19715,
                    0.1166
                ],
                [
                    -0.05708,
                    2.47077,
                    -0.36199
                ],
                [
                    -0.00089,
                    -0.40028,
                    2.91712
                ]
            ],
            [
                [
                    2.74688,
                    0.08583,
                    -0.03612
                ],
                [
                    0.11711,
                    2.51709,
                    -0.19838
                ],
                [
                    0.22509,
                    -0.22369,
                    2.08832
                ]
            ],
            [
                [
                    2.82267,
                    -0.19716,
                    0.1166
                ],
                [
                    -0.0571,
                    2.47079,
                    -0.36202
                ],
                [
                    -0.00085,
                    -0.40029,
                    2.9171
                ]
            ],
            [
                [
                    -2.54107,
                    0.06372,
                    -0.39338
                ],
                [
                    0.06887,
                    -2.27191,
                    -0.51421
                ],
                [
                    -0.30283,
                    -0.58842,
                    -1.40146
                ]
            ],
            [
                [
                    -2.01478,
                    0.1848,
                    -0.21098
                ],
                [
                    0.13451,
                    -1.79587,
                    0.06272
                ],
                [
                    -0.16805,
                    -0.08468,
                    -1.99498
                ]
            ],
            [
                [
                    -1.79983,
                    -0.07969,
                    0.56577
                ],
                [
                    -0.01299,
                    -2.40659,
                    -0.4464
                ],
                [
                    0.53854,
                    -0.45068,
                    -1.71977
                ]
            ],
            [
                [
                    -1.94009,
                    -0.37399,
                    0.57936
                ],
                [
                    -0.40164,
                    -1.69268,
                    -0.31151
                ],
                [
                    0.40269,
                    -0.39242,
                    -2.28174
                ]
            ],
            [
                [
                    -1.94009,
                    -0.37399,
                    0.57934
                ],
                [
                    -0.40167,
                    -1.69268,
                    -0.31157
                ],
                [
                    0.40265,
                    -0.39246,
                    -2.28175
                ]
            ],
            [
                [
                    -2.1106,
                    -0.70305,
                    -0.40515
                ],
                [
                    -0.69749,
                    -1.74299,
                    0.05179
                ],
                [
                    -0.40348,
                    0.25683,
                    -2.40266
                ]
            ],
            [
                [
                    -1.94009,
                    0.37399,
                    0.57936
                ],
                [
                    0.40167,
                    -1.69268,
                    0.31157
                ],
                [
                    0.40269,
                    0.39242,
                    -2.28174
                ]
            ],
            [
                [
                    -2.54118,
                    -0.06364,
                    -0.39338
                ],
                [
                    -0.06887,
                    -2.27191,
                    0.51421
                ],
                [
                    -0.30285,
                    0.58855,
                    -1.40138
                ]
            ],
            [
                [
                    -2.1106,
                    0.70305,
                    -0.40515
                ],
                [
                    0.69763,
                    -1.74314,
                    -0.05186
                ],
                [
                    -0.40348,
                    -0.25683,
                    -2.40266
                ]
            ],
            [
                [
                    -2.01478,
                    -0.1848,
                    -0.21098
                ],
                [
                    -0.1346,
                    -1.79591,
                    -0.06275
                ],
                [
                    -0.16805,
                    0.08468,
                    -1.99498
                ]
            ],
            [
                [
                    -2.54107,
                    -0.06372,
                    -0.39338
                ],
                [
                    -0.06895,
                    -2.27192,
                    0.51432
                ],
                [
                    -0.30283,
                    0.58842,
                    -1.40146
                ]
            ],
            [
                [
                    -2.01477,
                    -0.1848,
                    -0.21093
                ],
                [
                    -0.13451,
                    -1.79587,
                    -0.06272
                ],
                [
                    -0.16795,
                    0.08474,
                    -1.99484
                ]
            ],
            [
                [
                    -1.94009,
                    0.37399,
                    0.57934
                ],
                [
                    0.40164,
                    -1.69268,
                    0.31151
                ],
                [
                    0.40265,
                    0.39246,
                    -2.28175
                ]
            ],
            [
                [
                    -2.54118,
                    0.06364,
                    -0.39338
                ],
                [
                    0.06895,
                    -2.27192,
                    -0.51432
                ],
                [
                    -0.30285,
                    -0.58855,
                    -1.40138
                ]
            ],
            [
                [
                    -1.79983,
                    0.07969,
                    0.56577
                ],
                [
                    0.0131,
                    -2.40666,
                    0.44652
                ],
                [
                    0.53854,
                    0.45068,
                    -1.71977
                ]
            ],
            [
                [
                    -1.79987,
                    -0.07965,
                    0.56576
                ],
                [
                    -0.0131,
                    -2.40666,
                    -0.44652
                ],
                [
                    0.53842,
                    -0.45068,
                    -1.71984
                ]
            ],
            [
                [
                    -2.11057,
                    0.703,
                    -0.40514
                ],
                [
                    0.69749,
                    -1.74299,
                    -0.05179
                ],
                [
                    -0.40347,
                    -0.25678,
                    -2.4027
                ]
            ],
            [
                [
                    -2.01477,
                    0.1848,
                    -0.21093
                ],
                [
                    0.1346,
                    -1.79591,
                    0.06275
                ],
                [
                    -0.16795,
                    -0.08474,
                    -1.99484
                ]
            ],
            [
                [
                    -1.79987,
                    0.07965,
                    0.56576
                ],
                [
                    0.01299,
                    -2.40659,
                    0.4464
                ],
                [
                    0.53842,
                    0.45068,
                    -1.71984
                ]
            ],
            [
                [
                    -2.11057,
                    -0.703,
                    -0.40514
                ],
                [
                    -0.69763,
                    -1.74314,
                    0.05186
                ],
                [
                    -0.40347,
                    0.25678,
                    -2.4027
                ]
            ]
        ]
    },
    "band_gap": 4.2959000000000005,
    "is_direct": false,
    "formula": "ZrB2O5"
}