{
    "mp_id": "mp-510076",
    "nelements": 3,
    "nsites": 14,
    "elements": [
        "Au",
        "O",
        "Rb"
    ],
    "structure": {
        "@module": "pymatgen.core.structure",
        "@class": "Structure",
        "charge": null,
        "lattice": {
            "matrix": [
                [
                    -2.81375807,
                    4.63921358,
                    8.15943994
                ],
                [
                    2.81375807,
                    -4.63921358,
                    8.15943994
                ],
                [
                    2.81375807,
                    4.63921358,
                    -8.15943994
                ]
            ],
            "a": 9.798775293464676,
            "b": 9.798775293464676,
            "c": 9.798775293464676,
            "alpha": 146.6247000275943,
            "beta": 123.48326501530971,
            "gamma": 67.2458040618402,
            "volume": 426.04106529710515
        },
        "sites": [
            {
                "species": [
                    {
                        "element": "Rb",
                        "occu": 1
                    }
                ],
                "abc": [
                    0.61192328,
                    0.83236654,
                    0.77955673
                ],
                "xyz": [
                    2.8137580418624197,
                    2.5938468027849226,
                    5.423849723985614
                ],
                "label": "Rb",
                "properties": {}
            },
            {
                "species": [
                    {
                        "element": "Rb",
                        "occu": 1
                    }
                ],
                "abc": [
                    0.78928293,
                    0.5,
                    0.28928293
                ],
                "xyz": [
                    -1.1102230246251565e-16,
                    2.684090594636379,
                    8.15943994
                ],
                "label": "Rb",
                "properties": {}
            },
            {
                "species": [
                    {
                        "element": "Rb",
                        "occu": 1
                    }
                ],
                "abc": [
                    0.05280981,
                    0.83236654,
                    0.22044327
                ],
                "xyz": [
                    2.8137580700000004,
                    -2.5938467563927867,
                    5.4238496423912155
                ],
                "label": "Rb",
                "properties": {}
            },
            {
                "species": [
                    {
                        "element": "Rb",
                        "occu": 1
                    }
                ],
                "abc": [
                    0.38807672,
                    0.16763346,
                    0.22044327
                ],
                "xyz": [
                    2.813758082087503e-08,
                    2.045366777215077,
                    2.735590216014386
                ],
                "label": "Rb",
                "properties": {}
            },
            {
                "species": [
                    {
                        "element": "Rb",
                        "occu": 1
                    }
                ],
                "abc": [
                    0.94719019,
                    0.16763346,
                    0.77955673
                ],
                "xyz": [
                    0.0,
                    7.233060336392787,
                    2.735590297608785
                ],
                "label": "Rb",
                "properties": {}
            },
            {
                "species": [
                    {
                        "element": "Rb",
                        "occu": 1
                    }
                ],
                "abc": [
                    0.21071707,
                    0.5,
                    0.71071707
                ],
                "xyz": [
                    2.81375807,
                    1.9551229853636207,
                    0.0
                ],
                "label": "Rb",
                "properties": {}
            },
            {
                "species": [
                    {
                        "element": "Rb",
                        "occu": 1
                    }
                ],
                "abc": [
                    0.5,
                    0.0,
                    0.5
                ],
                "xyz": [
                    0.0,
                    4.63921358,
                    0.0
                ],
                "label": "Rb",
                "properties": {}
            },
            {
                "species": [
                    {
                        "element": "Au",
                        "occu": 1
                    }
                ],
                "abc": [
                    0.65318769,
                    0.65318769,
                    0.0
                ],
                "xyz": [
                    0.0,
                    0.0,
                    10.659291452204677
                ],
                "label": "Au",
                "properties": {}
            },
            {
                "species": [
                    {
                        "element": "Au",
                        "occu": 1
                    }
                ],
                "abc": [
                    0.80486978,
                    0.30486978,
                    0.5
                ],
                "xyz": [
                    0.0,
                    4.63921358,
                    4.975133318862027
                ],
                "label": "Au",
                "properties": {}
            },
            {
                "species": [
                    {
                        "element": "Au",
                        "occu": 1
                    }
                ],
                "abc": [
                    0.0,
                    0.0,
                    0.0
                ],
                "xyz": [
                    0.0,
                    0.0,
                    0.0
                ],
                "label": "Au",
                "properties": {}
            },
            {
                "species": [
                    {
                        "element": "Au",
                        "occu": 1
                    }
                ],
                "abc": [
                    0.34681231,
                    0.34681231,
                    0.0
                ],
                "xyz": [
                    0.0,
                    0.0,
                    5.659588427795323
                ],
                "label": "Au",
                "properties": {}
            },
            {
                "species": [
                    {
                        "element": "Au",
                        "occu": 1
                    }
                ],
                "abc": [
                    0.19513022,
                    0.69513022,
                    0.5
                ],
                "xyz": [
                    2.8137580700000004,
                    0.0,
                    3.1843066211379742
                ],
                "label": "Au",
                "properties": {}
            },
            {
                "species": [
                    {
                        "element": "O",
                        "occu": 1
                    }
                ],
                "abc": [
                    0.78488363,
                    0.0,
                    0.78488363
                ],
                "xyz": [
                    0.0,
                    7.282485590031391,
                    0.0
                ],
                "label": "O",
                "properties": {}
            },
            {
                "species": [
                    {
                        "element": "O",
                        "occu": 1
                    }
                ],
                "abc": [
                    0.21511637,
                    0.0,
                    0.21511637
                ],
                "xyz": [
                    0.0,
                    1.9959415699686092,
                    0.0
                ],
                "label": "O",
                "properties": {}
            }
        ]
    },
    "spacegroup": {
        "source": "spglib",
        "symbol": "Immm",
        "number": 71,
        "point_group": "mmm",
        "crystal_system": "orthorhombic",
        "hall": "-I 2 2"
    },
    "dielectric": {
        "epsilon_ionic": [
            [
                37.7116805,
                -0.0,
                -1e-08
            ],
            [
                -0.0,
                4.54283519,
                0.0
            ],
            [
                -1e-08,
                0.0,
                6.42156739
            ]
        ],
        "epsilon_ionic_avg": 16.225361026666665,
        "epsilon_ionic_eig": [
            37.7116805,
            6.42156739,
            4.54283519
        ],
        "epsilon_electronic": [
            [
                4.75952055,
                0.0,
                0.0
            ],
            [
                0.0,
                4.32904693,
                0.0
            ],
            [
                0.0,
                0.0,
                4.87439536
            ]
        ],
        "epsilon_electronic_avg": 4.654320946666666,
        "epsilon_electronic_eig": [
            4.75952055,
            4.32904693,
            4.87439536
        ]
    },
    "phonon": {
        "lowest_freq": -0.0465983014375514,
        "frequency": [
            -0.0465983014375514,
            -0.016393298963290084,
            -0.003952898306879635,
            0.1095200856886854,
            0.1305996304896712,
            0.4747093522578555,
            0.7162768923145578,
            0.8149555073229051,
            0.8790323432075153,
            1.0462857447643497,
            1.0465097483373855,
            1.076951891268137,
            1.2244281973679503,
            1.2316440859566204,
            1.2421110556884254,
            1.4305947524477471,
            1.440350951796405,
            1.5059791425604296,
            1.5580629333743161,
            1.7173247925243758,
            1.7676686425130461,
            1.7681938191053799,
            1.8324899949452027,
            1.8599233275284586,
            2.070942672140407,
            2.083347653485557,
            2.2671351820127255,
            2.330720324760221,
            2.5232941154181883,
            2.5970672413304743,
            2.605039581859259,
            2.6065449431368317,
            2.993185772450503,
            3.2134188449988565,
            3.2812479556598713,
            3.9611783820385305,
            5.799179266515433,
            6.892432854861645,
            7.8421241680486755,
            8.614167910799072,
            15.884688524104199,
            17.148908069981154
        ]
    },
    "born_effective_charge": {
        "avg_abs_trace": 1.201734047619048,
        "tensors": [
            [
                [
                    1.09507,
                    2e-05,
                    6e-05
                ],
                [
                    -0.0,
                    1.11051,
                    0.14205
                ],
                [
                    0.0,
                    0.06155,
                    1.23155
                ]
            ],
            [
                [
                    1.31354,
                    4e-05,
                    0.0
                ],
                [
                    -0.0,
                    1.09475,
                    -0.0
                ],
                [
                    -0.0,
                    -6e-05,
                    1.25259
                ]
            ],
            [
                [
                    1.09507,
                    -2e-05,
                    6e-05
                ],
                [
                    0.0,
                    1.11042,
                    -0.14202
                ],
                [
                    0.0,
                    -0.06155,
                    1.23155
                ]
            ],
            [
                [
                    1.09507,
                    -2e-05,
                    -6e-05
                ],
                [
                    -0.0,
                    1.11042,
                    0.14202
                ],
                [
                    -0.0,
                    0.06161,
                    1.23172
                ]
            ],
            [
                [
                    1.09507,
                    2e-05,
                    -6e-05
                ],
                [
                    0.0,
                    1.11051,
                    -0.14205
                ],
                [
                    -0.0,
                    -0.06161,
                    1.23172
                ]
            ],
            [
                [
                    1.31354,
                    -4e-05,
                    -0.0
                ],
                [
                    -0.0,
                    1.0948,
                    -0.0
                ],
                [
                    -0.0,
                    6e-05,
                    1.25259
                ]
            ],
            [
                [
                    1.18326,
                    0.0,
                    0.0
                ],
                [
                    -0.0,
                    1.6969,
                    -0.0
                ],
                [
                    0.0,
                    -0.0,
                    1.28577
                ]
            ],
            [
                [
                    -1.06619,
                    0.0,
                    -8e-05
                ],
                [
                    -0.0,
                    -1.17812,
                    -1e-05
                ],
                [
                    0.0,
                    -0.0,
                    -1.05707
                ]
            ],
            [
                [
                    -1.05783,
                    0.0,
                    7e-05
                ],
                [
                    -0.0,
                    -1.12483,
                    0.0
                ],
                [
                    0.0,
                    -0.0,
                    -0.91772
                ]
            ],
            [
                [
                    -1.09432,
                    0.0,
                    0.0
                ],
                [
                    -0.0,
                    2.08873,
                    -0.0
                ],
                [
                    0.0,
                    -0.0,
                    -1.13807
                ]
            ],
            [
                [
                    -1.06619,
                    0.0,
                    8e-05
                ],
                [
                    -0.0,
                    -1.17812,
                    1e-05
                ],
                [
                    0.0,
                    -0.0,
                    -1.05701
                ]
            ],
            [
                [
                    -1.05783,
                    0.0,
                    -7e-05
                ],
                [
                    -0.0,
                    -1.12483,
                    -0.0
                ],
                [
                    0.0,
                    -0.0,
                    -0.91756
                ]
            ],
            [
                [
                    -1.42412,
                    -0.0001,
                    0.0
                ],
                [
                    0.0,
                    -2.9055,
                    -0.0
                ],
                [
                    -0.0,
                    0.00039,
                    -1.81504
                ]
            ],
            [
                [
                    -1.42412,
                    0.0001,
                    -0.0
                ],
                [
                    0.0,
                    -2.90563,
                    0.0
                ],
                [
                    0.0,
                    -0.00039,
                    -1.81504
                ]
            ]
        ]
    },
    "band_gap": 0.6847000000000001,
    "is_direct": false,
    "formula": "Rb7Au5O2"
}