{
    "mp_id": "mp-557855",
    "nelements": 4,
    "nsites": 28,
    "elements": [
        "B",
        "Ca",
        "Ga",
        "O"
    ],
    "structure": {
        "@module": "pymatgen.core.structure",
        "@class": "Structure",
        "charge": null,
        "lattice": {
            "matrix": [
                [
                    4.13968407,
                    -7.72407001,
                    0.0
                ],
                [
                    4.13968407,
                    7.72407001,
                    0.0
                ],
                [
                    0.0,
                    0.0,
                    5.84463486
                ]
            ],
            "a": 8.763460601771035,
            "b": 8.763460601771035,
            "c": 5.84463486,
            "alpha": 90.0,
            "beta": 90.0,
            "gamma": 123.62219439049436,
            "volume": 373.7668490869437
        },
        "sites": [
            {
                "species": [
                    {
                        "element": "Ca",
                        "occu": 1
                    }
                ],
                "abc": [
                    0.55136363,
                    0.7323001,
                    0.09960765
                ],
                "xyz": [
                    5.313962294317782,
                    1.3975659616422647,
                    0.582170343512679
                ],
                "label": "Ca",
                "properties": {}
            },
            {
                "species": [
                    {
                        "element": "Ca",
                        "occu": 1
                    }
                ],
                "abc": [
                    0.2676999,
                    0.44863637,
                    0.59960765
                ],
                "xyz": [
                    2.965405845682219,
                    1.3975659616422647,
                    3.5044877735126794
                ],
                "label": "Ca",
                "properties": {}
            },
            {
                "species": [
                    {
                        "element": "Ca",
                        "occu": 1
                    }
                ],
                "abc": [
                    0.44863637,
                    0.2676999,
                    0.09960765
                ],
                "xyz": [
                    2.965405845682219,
                    -1.3975659616422647,
                    0.582170343512679
                ],
                "label": "Ca",
                "properties": {}
            },
            {
                "species": [
                    {
                        "element": "Ca",
                        "occu": 1
                    }
                ],
                "abc": [
                    0.7323001,
                    0.55136363,
                    0.59960765
                ],
                "xyz": [
                    5.313962294317782,
                    -1.3975659616422647,
                    3.5044877735126794
                ],
                "label": "Ca",
                "properties": {}
            },
            {
                "species": [
                    {
                        "element": "Ga",
                        "occu": 1
                    }
                ],
                "abc": [
                    0.77520924,
                    0.18789835,
                    0.37332556
                ],
                "xyz": [
                    3.9869611480190916,
                    -4.536430431995409,
                    2.1819515821050217
                ],
                "label": "Ga",
                "properties": {}
            },
            {
                "species": [
                    {
                        "element": "Ga",
                        "occu": 1
                    }
                ],
                "abc": [
                    0.18789835,
                    0.77520924,
                    0.87332556
                ],
                "xyz": [
                    3.9869611480190916,
                    4.536430431995409,
                    5.104269012105021
                ],
                "label": "Ga",
                "properties": {}
            },
            {
                "species": [
                    {
                        "element": "Ga",
                        "occu": 1
                    }
                ],
                "abc": [
                    0.81210165,
                    0.22479076,
                    0.87332556
                ],
                "xyz": [
                    4.29240699198091,
                    -4.536430431995409,
                    5.104269012105021
                ],
                "label": "Ga",
                "properties": {}
            },
            {
                "species": [
                    {
                        "element": "Ga",
                        "occu": 1
                    }
                ],
                "abc": [
                    0.22479076,
                    0.81210165,
                    0.37332556
                ],
                "xyz": [
                    4.29240699198091,
                    4.536430431995409,
                    2.1819515821050217
                ],
                "label": "Ga",
                "properties": {}
            },
            {
                "species": [
                    {
                        "element": "B",
                        "occu": 1
                    }
                ],
                "abc": [
                    0.13247786,
                    0.34924526,
                    0.14116082
                ],
                "xyz": [
                    1.9941815260146987,
                    1.6743265734856738,
                    0.8250334494381852
                ],
                "label": "B",
                "properties": {}
            },
            {
                "species": [
                    {
                        "element": "B",
                        "occu": 1
                    }
                ],
                "abc": [
                    0.65075474,
                    0.86752214,
                    0.64116082
                ],
                "xyz": [
                    6.285186613985303,
                    1.6743265734856747,
                    3.7473508794381853
                ],
                "label": "B",
                "properties": {}
            },
            {
                "species": [
                    {
                        "element": "B",
                        "occu": 1
                    }
                ],
                "abc": [
                    0.86752214,
                    0.65075474,
                    0.14116082
                ],
                "xyz": [
                    6.285186613985303,
                    -1.6743265734856747,
                    0.8250334494381852
                ],
                "label": "B",
                "properties": {}
            },
            {
                "species": [
                    {
                        "element": "B",
                        "occu": 1
                    }
                ],
                "abc": [
                    0.34924526,
                    0.13247786,
                    0.64116082
                ],
                "xyz": [
                    1.9941815260146987,
                    -1.6743265734856738,
                    3.7473508794381853
                ],
                "label": "B",
                "properties": {}
            },
            {
                "species": [
                    {
                        "element": "O",
                        "occu": 1
                    }
                ],
                "abc": [
                    0.71712511,
                    0.97674773,
                    0.83516052
                ],
                "xyz": [
                    7.01209841235366,
                    2.005343293059627,
                    4.881208288887727
                ],
                "label": "O",
                "properties": {}
            },
            {
                "species": [
                    {
                        "element": "O",
                        "occu": 1
                    }
                ],
                "abc": [
                    0.57104575,
                    0.68387719,
                    0.6762362
                ],
                "xyz": [
                    5.194984503795567,
                    0.8715179418891141,
                    3.9523536681139317
                ],
                "label": "O",
                "properties": {}
            },
            {
                "species": [
                    {
                        "element": "O",
                        "occu": 1
                    }
                ],
                "abc": [
                    0.30892434,
                    0.76407966,
                    0.11833548
                ],
                "xyz": [
                    4.441897565846281,
                    3.5156515571039533,
                    0.6916276715828329
                ],
                "label": "O",
                "properties": {}
            },
            {
                "species": [
                    {
                        "element": "O",
                        "occu": 1
                    }
                ],
                "abc": [
                    0.68387719,
                    0.57104575,
                    0.1762362
                ],
                "xyz": [
                    5.194984503795567,
                    -0.8715179418891141,
                    1.030036238113932
                ],
                "label": "O",
                "properties": {}
            },
            {
                "species": [
                    {
                        "element": "O",
                        "occu": 1
                    }
                ],
                "abc": [
                    0.42895425,
                    0.31612281,
                    0.6762362
                ],
                "xyz": [
                    3.084383636204434,
                    -0.8715179418891146,
                    3.9523536681139317
                ],
                "label": "O",
                "properties": {}
            },
            {
                "species": [
                    {
                        "element": "O",
                        "occu": 1
                    }
                ],
                "abc": [
                    0.06302495,
                    0.33437073,
                    0.92217378
                ],
                "xyz": [
                    1.6450925659828177,
                    2.095893801638058,
                    5.3897690215659715
                ],
                "label": "O",
                "properties": {}
            },
            {
                "species": [
                    {
                        "element": "O",
                        "occu": 1
                    }
                ],
                "abc": [
                    0.23592034,
                    0.69107566,
                    0.61833548
                ],
                "xyz": [
                    3.8374705741537203,
                    3.5156515571039533,
                    3.613945101582833
                ],
                "label": "O",
                "properties": {}
            },
            {
                "species": [
                    {
                        "element": "O",
                        "occu": 1
                    }
                ],
                "abc": [
                    0.76407966,
                    0.30892434,
                    0.61833548
                ],
                "xyz": [
                    4.441897565846281,
                    -3.5156515571039533,
                    3.613945101582833
                ],
                "label": "O",
                "properties": {}
            },
            {
                "species": [
                    {
                        "element": "O",
                        "occu": 1
                    }
                ],
                "abc": [
                    0.66562927,
                    0.93697505,
                    0.42217378
                ],
                "xyz": [
                    6.634275574017183,
                    2.0958938016380575,
                    2.467451591565971
                ],
                "label": "O",
                "properties": {}
            },
            {
                "species": [
                    {
                        "element": "O",
                        "occu": 1
                    }
                ],
                "abc": [
                    0.02325227,
                    0.28287489,
                    0.33516052
                ],
                "xyz": [
                    1.2672697276463414,
                    2.005343293059626,
                    1.9588908588877274
                ],
                "label": "O",
                "properties": {}
            },
            {
                "species": [
                    {
                        "element": "O",
                        "occu": 1
                    }
                ],
                "abc": [
                    0.93697505,
                    0.66562927,
                    0.92217378
                ],
                "xyz": [
                    6.634275574017183,
                    -2.0958938016380575,
                    5.3897690215659715
                ],
                "label": "O",
                "properties": {}
            },
            {
                "species": [
                    {
                        "element": "O",
                        "occu": 1
                    }
                ],
                "abc": [
                    0.69107566,
                    0.23592034,
                    0.11833548
                ],
                "xyz": [
                    3.8374705741537203,
                    -3.5156515571039533,
                    0.6916276715828329
                ],
                "label": "O",
                "properties": {}
            },
            {
                "species": [
                    {
                        "element": "O",
                        "occu": 1
                    }
                ],
                "abc": [
                    0.97674773,
                    0.71712511,
                    0.33516052
                ],
                "xyz": [
                    7.01209841235366,
                    -2.005343293059627,
                    1.9588908588877274
                ],
                "label": "O",
                "properties": {}
            },
            {
                "species": [
                    {
                        "element": "O",
                        "occu": 1
                    }
                ],
                "abc": [
                    0.28287489,
                    0.02325227,
                    0.83516052
                ],
                "xyz": [
                    1.2672697276463414,
                    -2.005343293059626,
                    4.881208288887727
                ],
                "label": "O",
                "properties": {}
            },
            {
                "species": [
                    {
                        "element": "O",
                        "occu": 1
                    }
                ],
                "abc": [
                    0.31612281,
                    0.42895425,
                    0.1762362
                ],
                "xyz": [
                    3.084383636204434,
                    0.8715179418891146,
                    1.030036238113932
                ],
                "label": "O",
                "properties": {}
            },
            {
                "species": [
                    {
                        "element": "O",
                        "occu": 1
                    }
                ],
                "abc": [
                    0.33437073,
                    0.06302495,
                    0.42217378
                ],
                "xyz": [
                    1.6450925659828177,
                    -2.095893801638058,
                    2.467451591565971
                ],
                "label": "O",
                "properties": {}
            }
        ]
    },
    "spacegroup": {
        "source": "spglib",
        "symbol": "Ccc2",
        "number": 37,
        "point_group": "mm2",
        "crystal_system": "orthorhombic",
        "hall": "C 2 -2c"
    },
    "dielectric": {
        "epsilon_ionic": [
            [
                4.01343279,
                0.0,
                1.303e-05
            ],
            [
                0.0,
                3.33538111,
                1.059e-05
            ],
            [
                1.303e-05,
                1.059e-05,
                5.37484827
            ]
        ],
        "epsilon_ionic_avg": 4.241220723333334,
        "epsilon_ionic_eig": [
            4.0134327898752895,
            5.374848270179701,
            3.3353811099450112
        ],
        "epsilon_electronic": [
            [
                2.87444646,
                0.0,
                0.0
            ],
            [
                0.0,
                2.77572726,
                0.0
            ],
            [
                0.0,
                0.0,
                2.99347208
            ]
        ],
        "epsilon_electronic_avg": 2.8812152666666666,
        "epsilon_electronic_eig": [
            2.87444646,
            2.77572726,
            2.99347208
        ]
    },
    "phonon": {
        "lowest_freq": -0.05128979952891831,
        "frequency": [
            -0.05128979952891831,
            -0.030260607144353465,
            -0.015416772710079681,
            2.205469951046601,
            2.2171062693706935,
            2.8392193778774,
            2.8900441364203378,
            3.1493594926102473,
            3.5783156197154895,
            3.739919849753431,
            3.7448387169726516,
            3.783635944088961,
            4.042353711947032,
            4.153725492281055,
            4.201045771478836,
            4.624677684871215,
            4.868911195823255,
            5.141006596881992,
            5.195326041039631,
            5.424230070587858,
            5.596656329106473,
            5.625011416915622,
            6.068742063021512,
            6.094988674473728,
            6.405969001989229,
            6.532337836276351,
            6.568187881950285,
            6.632028463973552,
            6.770004201809347,
            7.15804959083389,
            7.169193396184291,
            7.240327866490653,
            7.518520779364051,
            7.543551276664208,
            7.577271874457567,
            7.698156771202802,
            8.083695229255456,
            8.276219212828247,
            8.824631387965296,
            9.216342308788946,
            9.234959437003047,
            9.642299042448473,
            9.72564549271902,
            10.02700411900788,
            10.049570822827693,
            10.355118895909282,
            10.45710002540576,
            10.94687636234802,
            12.443588416726342,
            12.74452153178395,
            13.13782964216448,
            13.573847860685973,
            17.282696744483655,
            17.478029258843005,
            17.961545005133296,
            18.322717344390124,
            18.482105842163325,
            18.592402661082982,
            18.75151604023097,
            18.9154515258702,
            19.596686153315034,
            19.60849024316722,
            20.169098926321837,
            20.1878939459181,
            20.205773831556392,
            20.253044106811018,
            20.35214148192318,
            20.383062638414817,
            20.412648886574896,
            20.641568930009157,
            21.660651334572144,
            21.7144769025034,
            28.184015670056937,
            28.273191801870002,
            28.3148920913757,
            28.364689158529536,
            36.638946399944,
            36.722840664789935,
            37.58916087132074,
            37.89310104859277,
            38.16891916101656,
            38.71663414416463,
            38.87009931842039,
            39.99141949207971
        ]
    },
    "born_effective_charge": {
        "avg_abs_trace": 2.0077919047619046,
        "tensors": [
            [
                [
                    2.28053,
                    -0.01641,
                    -0.08759
                ],
                [
                    -0.03423,
                    2.69639,
                    0.00871
                ],
                [
                    -0.08966,
                    -0.01516,
                    2.32101
                ]
            ],
            [
                [
                    2.28051,
                    0.01643,
                    0.0876
                ],
                [
                    0.03423,
                    2.69639,
                    0.00871
                ],
                [
                    0.08966,
                    -0.01516,
                    2.32101
                ]
            ],
            [
                [
                    2.28051,
                    -0.01643,
                    0.0876
                ],
                [
                    -0.03428,
                    2.69632,
                    -0.0087
                ],
                [
                    0.08966,
                    0.01516,
                    2.32101
                ]
            ],
            [
                [
                    2.28053,
                    0.01641,
                    -0.08759
                ],
                [
                    0.03428,
                    2.69632,
                    -0.0087
                ],
                [
                    -0.08966,
                    0.01516,
                    2.32101
                ]
            ],
            [
                [
                    2.67243,
                    0.01093,
                    -0.21602
                ],
                [
                    -0.01376,
                    2.15821,
                    0.02342
                ],
                [
                    -0.23027,
                    -0.01595,
                    2.93471
                ]
            ],
            [
                [
                    2.67243,
                    -0.01093,
                    -0.21602
                ],
                [
                    0.01377,
                    2.15822,
                    -0.02343
                ],
                [
                    -0.23027,
                    0.01595,
                    2.93471
                ]
            ],
            [
                [
                    2.67243,
                    -0.01094,
                    0.21603
                ],
                [
                    0.01376,
                    2.15821,
                    0.02342
                ],
                [
                    0.23027,
                    -0.01595,
                    2.93471
                ]
            ],
            [
                [
                    2.67243,
                    0.01094,
                    0.21603
                ],
                [
                    -0.01377,
                    2.15822,
                    -0.02343
                ],
                [
                    0.23027,
                    0.01595,
                    2.93471
                ]
            ],
            [
                [
                    1.99293,
                    0.99083,
                    -0.0157
                ],
                [
                    1.06412,
                    1.35528,
                    0.25379
                ],
                [
                    -0.10237,
                    0.24094,
                    2.67037
                ]
            ],
            [
                [
                    1.99292,
                    -0.99083,
                    0.0157
                ],
                [
                    -1.06412,
                    1.35528,
                    0.25379
                ],
                [
                    0.10237,
                    0.24094,
                    2.67037
                ]
            ],
            [
                [
                    1.99292,
                    0.99083,
                    0.0157
                ],
                [
                    1.06412,
                    1.35527,
                    -0.2538
                ],
                [
                    0.10237,
                    -0.24094,
                    2.67037
                ]
            ],
            [
                [
                    1.99293,
                    -0.99083,
                    -0.0157
                ],
                [
                    -1.06412,
                    1.35527,
                    -0.2538
                ],
                [
                    -0.10237,
                    -0.24094,
                    2.67037
                ]
            ],
            [
                [
                    -1.89498,
                    0.67996,
                    -0.43315
                ],
                [
                    0.66677,
                    -1.17848,
                    0.22942
                ],
                [
                    -0.41522,
                    0.2184,
                    -2.01031
                ]
            ],
            [
                [
                    -2.11705,
                    0.60171,
                    0.03337
                ],
                [
                    0.56957,
                    -2.01731,
                    0.00898
                ],
                [
                    0.0172,
                    -0.01596,
                    -1.49873
                ]
            ],
            [
                [
                    -1.31066,
                    -0.24134,
                    -0.01627
                ],
                [
                    -0.26166,
                    -1.78913,
                    0.03403
                ],
                [
                    -0.0979,
                    0.02784,
                    -2.17549
                ]
            ],
            [
                [
                    -2.11705,
                    -0.60171,
                    0.03337
                ],
                [
                    -0.56958,
                    -2.01729,
                    -0.00898
                ],
                [
                    0.0172,
                    0.01596,
                    -1.49873
                ]
            ],
            [
                [
                    -2.11705,
                    0.60172,
                    -0.03338
                ],
                [
                    0.56958,
                    -2.01729,
                    -0.00898
                ],
                [
                    -0.0172,
                    0.01596,
                    -1.49873
                ]
            ],
            [
                [
                    -1.62318,
                    -0.59321,
                    -0.31962
                ],
                [
                    -0.46756,
                    -1.22492,
                    -0.35045
                ],
                [
                    -0.19851,
                    -0.32433,
                    -2.24157
                ]
            ],
            [
                [
                    -1.31067,
                    0.2413,
                    0.01627
                ],
                [
                    0.26166,
                    -1.78913,
                    0.03403
                ],
                [
                    0.0979,
                    0.02784,
                    -2.17549
                ]
            ],
            [
                [
                    -1.31066,
                    0.24134,
                    -0.01627
                ],
                [
                    0.26168,
                    -1.78914,
                    -0.03401
                ],
                [
                    -0.0979,
                    -0.02784,
                    -2.17549
                ]
            ],
            [
                [
                    -1.62317,
                    0.59318,
                    0.31961
                ],
                [
                    0.46756,
                    -1.22492,
                    -0.35045
                ],
                [
                    0.19851,
                    -0.32433,
                    -2.24157
                ]
            ],
            [
                [
                    -1.89499,
                    -0.68,
                    0.43315
                ],
                [
                    -0.66677,
                    -1.17848,
                    0.22942
                ],
                [
                    0.41522,
                    0.2184,
                    -2.01031
                ]
            ],
            [
                [
                    -1.62317,
                    -0.59318,
                    0.31961
                ],
                [
                    -0.46757,
                    -1.22493,
                    0.35044
                ],
                [
                    0.19851,
                    0.32433,
                    -2.24157
                ]
            ],
            [
                [
                    -1.31067,
                    -0.2413,
                    0.01627
                ],
                [
                    -0.26168,
                    -1.78914,
                    -0.03401
                ],
                [
                    0.0979,
                    -0.02784,
                    -2.17549
                ]
            ],
            [
                [
                    -1.89498,
                    -0.67996,
                    -0.43315
                ],
                [
                    -0.66679,
                    -1.17849,
                    -0.22942
                ],
                [
                    -0.41522,
                    -0.2184,
                    -2.01031
                ]
            ],
            [
                [
                    -1.89499,
                    0.68,
                    0.43315
                ],
                [
                    0.66679,
                    -1.17849,
                    -0.22942
                ],
                [
                    0.41522,
                    -0.2184,
                    -2.01031
                ]
            ],
            [
                [
                    -2.11705,
                    -0.60172,
                    -0.03338
                ],
                [
                    -0.56957,
                    -2.01731,
                    0.00898
                ],
                [
                    -0.0172,
                    -0.01596,
                    -1.49873
                ]
            ],
            [
                [
                    -1.62318,
                    0.59321,
                    -0.31962
                ],
                [
                    0.46757,
                    -1.22493,
                    0.35044
                ],
                [
                    -0.19851,
                    0.32433,
                    -2.24157
                ]
            ]
        ]
    },
    "band_gap": 4.053599999999999,
    "is_direct": false,
    "formula": "CaGaBO4"
}