{
    "mp_id": "mp-561991",
    "nelements": 4,
    "nsites": 22,
    "elements": [
        "Ca",
        "Co",
        "O",
        "Sc"
    ],
    "structure": {
        "@module": "pymatgen.core.structure",
        "@class": "Structure",
        "charge": null,
        "lattice": {
            "matrix": [
                [
                    4.54096604,
                    2.62172795,
                    3.47488412
                ],
                [
                    -4.54096604,
                    2.62172795,
                    3.47488412
                ],
                [
                    0.0,
                    -5.2434559,
                    3.47488412
                ]
            ],
            "a": 6.290361648400882,
            "b": 6.290361648400882,
            "c": 6.29036162892667,
            "alpha": 92.42193094381085,
            "beta": 92.42193094381085,
            "gamma": 92.42193129138741,
            "volume": 248.2146752585121
        },
        "sites": [
            {
                "species": [
                    {
                        "element": "Ca",
                        "occu": 1
                    }
                ],
                "abc": [
                    0.75,
                    0.38170728,
                    0.11829272
                ],
                "xyz": [
                    1.6724047342992285,
                    2.346765946583428,
                    4.34360515
                ],
                "label": "Ca",
                "properties": {}
            },
            {
                "species": [
                    {
                        "element": "Ca",
                        "occu": 1
                    }
                ],
                "abc": [
                    0.11829272,
                    0.75,
                    0.38170728
                ],
                "xyz": [
                    -2.868561305700771,
                    0.27496200341657184,
                    4.34360515
                ],
                "label": "Ca",
                "properties": {}
            },
            {
                "species": [
                    {
                        "element": "Ca",
                        "occu": 1
                    }
                ],
                "abc": [
                    0.38170728,
                    0.11829272,
                    0.75
                ],
                "xyz": [
                    1.1961565714015423,
                    -2.6217279499999995,
                    4.34360515
                ],
                "label": "Ca",
                "properties": {}
            },
            {
                "species": [
                    {
                        "element": "Ca",
                        "occu": 1
                    }
                ],
                "abc": [
                    0.61829272,
                    0.88170728,
                    0.25
                ],
                "xyz": [
                    -1.1961565714015423,
                    2.6217279499999995,
                    6.0810472099999995
                ],
                "label": "Ca",
                "properties": {}
            },
            {
                "species": [
                    {
                        "element": "Ca",
                        "occu": 1
                    }
                ],
                "abc": [
                    0.88170728,
                    0.25,
                    0.61829272
                ],
                "xyz": [
                    2.868561305700771,
                    -0.27496200341657184,
                    6.0810472099999995
                ],
                "label": "Ca",
                "properties": {}
            },
            {
                "species": [
                    {
                        "element": "Ca",
                        "occu": 1
                    }
                ],
                "abc": [
                    0.25,
                    0.61829272,
                    0.88170728
                ],
                "xyz": [
                    -1.672404734299229,
                    -2.346765946583428,
                    6.0810472099999995
                ],
                "label": "Ca",
                "properties": {}
            },
            {
                "species": [
                    {
                        "element": "Sc",
                        "occu": 1
                    }
                ],
                "abc": [
                    0.25,
                    0.25,
                    0.25
                ],
                "xyz": [
                    0.0,
                    0.0,
                    2.60616309
                ],
                "label": "Sc",
                "properties": {}
            },
            {
                "species": [
                    {
                        "element": "Sc",
                        "occu": 1
                    }
                ],
                "abc": [
                    0.75,
                    0.75,
                    0.75
                ],
                "xyz": [
                    0.0,
                    0.0,
                    7.81848927
                ],
                "label": "Sc",
                "properties": {}
            },
            {
                "species": [
                    {
                        "element": "Co",
                        "occu": 1
                    }
                ],
                "abc": [
                    0.5,
                    0.5,
                    0.5
                ],
                "xyz": [
                    0.0,
                    0.0,
                    5.21232618
                ],
                "label": "Co",
                "properties": {}
            },
            {
                "species": [
                    {
                        "element": "Co",
                        "occu": 1
                    }
                ],
                "abc": [
                    0.0,
                    0.0,
                    0.0
                ],
                "xyz": [
                    0.0,
                    0.0,
                    0.0
                ],
                "label": "Co",
                "properties": {}
            },
            {
                "species": [
                    {
                        "element": "O",
                        "occu": 1
                    }
                ],
                "abc": [
                    0.9564296,
                    0.08840067,
                    0.29008189
                ],
                "xyz": [
                    3.9416898928675375,
                    1.2182291242613952,
                    4.638665066378899
                ],
                "label": "O",
                "properties": {}
            },
            {
                "species": [
                    {
                        "element": "O",
                        "occu": 1
                    }
                ],
                "abc": [
                    0.0435704,
                    0.91159933,
                    0.70991811
                ],
                "xyz": [
                    -3.941689892867537,
                    -1.2182291242613954,
                    5.785987293621101
                ],
                "label": "O",
                "properties": {}
            },
            {
                "species": [
                    {
                        "element": "O",
                        "occu": 1
                    }
                ],
                "abc": [
                    0.91159933,
                    0.70991811,
                    0.0435704
                ],
                "xyz": [
                    0.9158275709257686,
                    4.022718122915088,
                    5.785987293621101
                ],
                "label": "O",
                "properties": {}
            },
            {
                "species": [
                    {
                        "element": "O",
                        "occu": 1
                    }
                ],
                "abc": [
                    0.29008189,
                    0.9564296,
                    0.08840067
                ],
                "xyz": [
                    -3.0258623219417684,
                    2.8044889986536923,
                    4.638665066378899
                ],
                "label": "O",
                "properties": {}
            },
            {
                "species": [
                    {
                        "element": "O",
                        "occu": 1
                    }
                ],
                "abc": [
                    0.5435704,
                    0.20991811,
                    0.41159933
                ],
                "xyz": [
                    1.5151037180582316,
                    -0.18276104865369236,
                    4.048545233621101
                ],
                "label": "O",
                "properties": {}
            },
            {
                "species": [
                    {
                        "element": "O",
                        "occu": 1
                    }
                ],
                "abc": [
                    0.70991811,
                    0.0435704,
                    0.91159933
                ],
                "xyz": [
                    3.0258623219417684,
                    -2.8044889986536927,
                    5.785987293621101
                ],
                "label": "O",
                "properties": {}
            },
            {
                "species": [
                    {
                        "element": "O",
                        "occu": 1
                    }
                ],
                "abc": [
                    0.58840067,
                    0.4564296,
                    0.79008189
                ],
                "xyz": [
                    0.5992761471324628,
                    -1.403498825738604,
                    6.3761071263788995
                ],
                "label": "O",
                "properties": {}
            },
            {
                "species": [
                    {
                        "element": "O",
                        "occu": 1
                    }
                ],
                "abc": [
                    0.20991811,
                    0.41159933,
                    0.5435704
                ],
                "xyz": [
                    -0.9158275709257688,
                    -1.2207377770849122,
                    4.0485452336211
                ],
                "label": "O",
                "properties": {}
            },
            {
                "species": [
                    {
                        "element": "O",
                        "occu": 1
                    }
                ],
                "abc": [
                    0.41159933,
                    0.5435704,
                    0.20991811
                ],
                "xyz": [
                    -0.5992761471324628,
                    1.4034988257386043,
                    4.048545233621101
                ],
                "label": "O",
                "properties": {}
            },
            {
                "species": [
                    {
                        "element": "O",
                        "occu": 1
                    }
                ],
                "abc": [
                    0.4564296,
                    0.79008189,
                    0.58840067
                ],
                "xyz": [
                    -1.5151037180582314,
                    0.18276104865369236,
                    6.3761071263788995
                ],
                "label": "O",
                "properties": {}
            },
            {
                "species": [
                    {
                        "element": "O",
                        "occu": 1
                    }
                ],
                "abc": [
                    0.08840067,
                    0.29008189,
                    0.9564296
                ],
                "xyz": [
                    -0.9158275709257688,
                    -4.022718122915088,
                    4.638665066378899
                ],
                "label": "O",
                "properties": {}
            },
            {
                "species": [
                    {
                        "element": "O",
                        "occu": 1
                    }
                ],
                "abc": [
                    0.79008189,
                    0.58840067,
                    0.4564296
                ],
                "xyz": [
                    0.9158275709257686,
                    1.2207377770849113,
                    6.3761071263788995
                ],
                "label": "O",
                "properties": {}
            }
        ]
    },
    "spacegroup": {
        "source": "spglib",
        "symbol": "R-3c",
        "number": 167,
        "point_group": "-3m",
        "crystal_system": "trigonal",
        "hall": "-R 3 2\"c"
    },
    "dielectric": {
        "epsilon_ionic": [
            [
                9.3656671,
                -3e-08,
                -2e-08
            ],
            [
                -3e-08,
                9.36535018,
                -5.72e-06
            ],
            [
                -2e-08,
                -5.72e-06,
                10.83680277
            ]
        ],
        "epsilon_ionic_avg": 9.85594001666667,
        "epsilon_ionic_eig": [
            9.365667100002842,
            9.36535017997493,
            10.836802770022238
        ],
        "epsilon_electronic": [
            [
                4.52038793,
                0.0,
                -0.0
            ],
            [
                -0.0,
                4.52038812,
                -0.0
            ],
            [
                0.0,
                0.0,
                5.53893023
            ]
        ],
        "epsilon_electronic_avg": 4.859902093333333,
        "epsilon_electronic_eig": [
            4.52038793,
            4.52038812,
            5.53893023
        ]
    },
    "phonon": {
        "lowest_freq": -0.04818034244672105,
        "frequency": [
            -0.04818034244672105,
            -0.048180341381472744,
            -0.03643182360194875,
            4.906218855823614,
            4.906218905637969,
            5.308675358669687,
            5.443634419142212,
            5.474298608415401,
            5.646322191373442,
            5.64632221301586,
            5.714974805108281,
            5.714974869255579,
            5.836212903869616,
            5.836212945746109,
            6.035582352652608,
            6.1200095492337105,
            6.833515213702782,
            6.833515320997543,
            6.875361513432524,
            6.875361620074247,
            6.984389419109207,
            7.113038612394725,
            7.3982437053228685,
            7.711457387927972,
            7.749697508223086,
            7.749697555528183,
            8.619417038436238,
            8.61941708096814,
            8.905430684532497,
            9.207682657703806,
            9.207682790419138,
            9.497393292615236,
            9.497393344082017,
            9.590894650362765,
            9.713912687120377,
            11.044784894255546,
            11.303004660472702,
            11.303004660472702,
            11.800270284465944,
            11.800270398378649,
            11.899922749853038,
            11.899922760122019,
            12.53217515360532,
            12.532175163356225,
            12.714747961013316,
            12.714747970624208,
            13.438094190039761,
            13.438094235507542,
            13.684525282586284,
            14.26724620107404,
            14.267246252464503,
            15.160800409931433,
            15.824207675600832,
            15.834420893939079,
            15.834420971112767,
            15.975478018990577,
            16.088851410403983,
            16.088851410403983,
            16.19649117169511,
            16.922420605193796,
            16.922420749617654,
            17.359926910343823,
            17.359926910343823,
            17.87332254023864,
            17.956264293038107,
            19.095746398420335
        ]
    },
    "born_effective_charge": {
        "avg_abs_trace": 2.2976615151515154,
        "tensors": [
            [
                [
                    2.77137,
                    0.07256,
                    -0.32144
                ],
                [
                    0.07255,
                    2.6875,
                    -0.18558
                ],
                [
                    -0.17626,
                    -0.10182,
                    2.33294
                ]
            ],
            [
                [
                    2.77137,
                    -0.07256,
                    0.32144
                ],
                [
                    -0.07254,
                    2.68762,
                    -0.18554
                ],
                [
                    0.1763,
                    -0.10174,
                    2.33294
                ]
            ],
            [
                [
                    2.64576,
                    -0.0,
                    0.0
                ],
                [
                    8e-05,
                    2.81322,
                    0.37112
                ],
                [
                    -4e-05,
                    0.20355,
                    2.33294
                ]
            ],
            [
                [
                    2.64568,
                    -0.0,
                    0.0
                ],
                [
                    -8e-05,
                    2.81322,
                    0.37112
                ],
                [
                    4e-05,
                    0.20355,
                    2.33294
                ]
            ],
            [
                [
                    2.77141,
                    -0.07254,
                    0.3214
                ],
                [
                    -0.07255,
                    2.6875,
                    -0.18558
                ],
                [
                    0.17626,
                    -0.10182,
                    2.33294
                ]
            ],
            [
                [
                    2.77141,
                    0.07254,
                    -0.3214
                ],
                [
                    0.07254,
                    2.68762,
                    -0.18554
                ],
                [
                    -0.1763,
                    -0.10174,
                    2.33294
                ]
            ],
            [
                [
                    2.25489,
                    -0.0,
                    0.0
                ],
                [
                    1e-05,
                    2.25487,
                    -0.0
                ],
                [
                    -0.0,
                    -0.0,
                    6.07839
                ]
            ],
            [
                [
                    2.25481,
                    -0.0,
                    0.0
                ],
                [
                    -1e-05,
                    2.25487,
                    -0.0
                ],
                [
                    -0.0,
                    -0.0,
                    6.07839
                ]
            ],
            [
                [
                    1.18378,
                    0.07171,
                    0.0
                ],
                [
                    -0.07171,
                    1.18377,
                    0.0
                ],
                [
                    -0.0,
                    -0.0,
                    1.58007
                ]
            ],
            [
                [
                    1.18378,
                    -0.07171,
                    -0.0
                ],
                [
                    0.07171,
                    1.18377,
                    0.0
                ],
                [
                    -0.0,
                    -0.0,
                    1.58007
                ]
            ],
            [
                [
                    -1.63944,
                    -0.40074,
                    0.0813
                ],
                [
                    -0.33243,
                    -2.23602,
                    0.1831
                ],
                [
                    0.16338,
                    0.25035,
                    -2.44293
                ]
            ],
            [
                [
                    -1.63957,
                    -0.4008,
                    0.08129
                ],
                [
                    -0.33193,
                    -2.23635,
                    0.18282
                ],
                [
                    0.16328,
                    0.25048,
                    -2.44284
                ]
            ],
            [
                [
                    -1.76979,
                    0.40738,
                    0.11773
                ],
                [
                    0.47601,
                    -2.10614,
                    -0.16198
                ],
                [
                    0.13528,
                    -0.26664,
                    -2.44284
                ]
            ],
            [
                [
                    -2.40432,
                    -0.10954,
                    -0.19899
                ],
                [
                    -0.04098,
                    -1.47116,
                    -0.02115
                ],
                [
                    -0.2985,
                    0.01632,
                    -2.44293
                ]
            ],
            [
                [
                    -2.40432,
                    0.10954,
                    0.19899
                ],
                [
                    0.04075,
                    -1.47138,
                    -0.02101
                ],
                [
                    0.29856,
                    0.01616,
                    -2.44284
                ]
            ],
            [
                [
                    -2.40451,
                    -0.1093,
                    -0.1992
                ],
                [
                    -0.04075,
                    -1.47138,
                    -0.02101
                ],
                [
                    -0.29856,
                    0.01616,
                    -2.44284
                ]
            ],
            [
                [
                    -1.63957,
                    0.4008,
                    -0.08129
                ],
                [
                    0.33243,
                    -2.23602,
                    0.1831
                ],
                [
                    -0.16338,
                    0.25035,
                    -2.44293
                ]
            ],
            [
                [
                    -1.76951,
                    -0.40729,
                    -0.11789
                ],
                [
                    -0.47601,
                    -2.10614,
                    -0.16198
                ],
                [
                    -0.13528,
                    -0.26664,
                    -2.44284
                ]
            ],
            [
                [
                    -1.63944,
                    0.40074,
                    -0.0813
                ],
                [
                    0.33193,
                    -2.23635,
                    0.18282
                ],
                [
                    -0.16328,
                    0.25048,
                    -2.44284
                ]
            ],
            [
                [
                    -2.40451,
                    0.1093,
                    0.1992
                ],
                [
                    0.04098,
                    -1.47116,
                    -0.02115
                ],
                [
                    0.2985,
                    0.01632,
                    -2.44293
                ]
            ],
            [
                [
                    -1.76951,
                    0.40729,
                    0.11789
                ],
                [
                    0.47579,
                    -2.10594,
                    -0.16177
                ],
                [
                    0.13512,
                    -0.26667,
                    -2.44293
                ]
            ],
            [
                [
                    -1.76979,
                    -0.40738,
                    -0.11773
                ],
                [
                    -0.47579,
                    -2.10594,
                    -0.16177
                ],
                [
                    -0.13512,
                    -0.26667,
                    -2.44293
                ]
            ]
        ]
    },
    "band_gap": 2.5324,
    "is_direct": false,
    "formula": "Ca3ScCoO6"
}