{
    "mp_id": "mp-559617",
    "nelements": 3,
    "nsites": 32,
    "elements": [
        "B",
        "Hf",
        "O"
    ],
    "structure": {
        "@module": "pymatgen.core.structure",
        "@class": "Structure",
        "charge": null,
        "lattice": {
            "matrix": [
                [
                    4.40599448,
                    0.0,
                    -0.00026732
                ],
                [
                    0.0,
                    6.92999466,
                    0.0
                ],
                [
                    -0.13030601,
                    0.0,
                    9.00850799
                ]
            ],
            "a": 4.405994488109405,
            "b": 6.92999466,
            "c": 9.009450364041967,
            "alpha": 90.0,
            "beta": 90.83218881013622,
            "gamma": 90.0,
            "volume": 275.06120143787825
        },
        "sites": [
            {
                "species": [
                    {
                        "element": "Hf",
                        "occu": 1
                    }
                ],
                "abc": [
                    0.00148714,
                    0.11359518,
                    0.67119772
                ],
                "xyz": [
                    -0.08090876618331,
                    0.7872139908017388,
                    6.046489625947518
                ],
                "label": "Hf",
                "properties": {}
            },
            {
                "species": [
                    {
                        "element": "Hf",
                        "occu": 1
                    }
                ],
                "abc": [
                    0.99851286,
                    0.88640482,
                    0.32880228
                ],
                "xyz": [
                    4.35659723618331,
                    6.142780669198261,
                    2.9617510440524817
                ],
                "label": "Hf",
                "properties": {}
            },
            {
                "species": [
                    {
                        "element": "Hf",
                        "occu": 1
                    }
                ],
                "abc": [
                    0.00148714,
                    0.38640482,
                    0.17119772
                ],
                "xyz": [
                    -0.01575576118331,
                    2.6777833391982613,
                    1.5422356309475178
                ],
                "label": "Hf",
                "properties": {}
            },
            {
                "species": [
                    {
                        "element": "Hf",
                        "occu": 1
                    }
                ],
                "abc": [
                    0.99851286,
                    0.61359518,
                    0.82880228
                ],
                "xyz": [
                    4.29144423118331,
                    4.252211320801739,
                    7.466005039052482
                ],
                "label": "Hf",
                "properties": {}
            },
            {
                "species": [
                    {
                        "element": "B",
                        "occu": 1
                    }
                ],
                "abc": [
                    0.46469248,
                    0.41263692,
                    0.66554763
                ],
                "xyz": [
                    1.9607076456472545,
                    2.8595716521188472,
                    5.99546692098681
                ],
                "label": "B",
                "properties": {}
            },
            {
                "species": [
                    {
                        "element": "B",
                        "occu": 1
                    }
                ],
                "abc": [
                    0.53530752,
                    0.58736308,
                    0.33445237
                ],
                "xyz": [
                    2.3149808243527463,
                    4.070423007881153,
                    3.01277374901319
                ],
                "label": "B",
                "properties": {}
            },
            {
                "species": [
                    {
                        "element": "B",
                        "occu": 1
                    }
                ],
                "abc": [
                    0.53530752,
                    0.91263692,
                    0.83445237
                ],
                "xyz": [
                    2.2498278193527463,
                    6.324568982118847,
                    7.51702774401319
                ],
                "label": "B",
                "properties": {}
            },
            {
                "species": [
                    {
                        "element": "B",
                        "occu": 1
                    }
                ],
                "abc": [
                    0.52643887,
                    0.27097073,
                    0.9228738
                ],
                "xyz": [
                    2.1992307526659,
                    1.8778257119163018,
                    8.313575273422934
                ],
                "label": "B",
                "properties": {}
            },
            {
                "species": [
                    {
                        "element": "B",
                        "occu": 1
                    }
                ],
                "abc": [
                    0.46469248,
                    0.08736308,
                    0.16554763
                ],
                "xyz": [
                    2.0258606506472545,
                    0.6054256778811528,
                    1.49121292598681
                ],
                "label": "B",
                "properties": {}
            },
            {
                "species": [
                    {
                        "element": "B",
                        "occu": 1
                    }
                ],
                "abc": [
                    0.47356113,
                    0.72902927,
                    0.0771262
                ],
                "xyz": [
                    2.0764577173341006,
                    5.052168948083698,
                    0.6946653965770665
                ],
                "label": "B",
                "properties": {}
            },
            {
                "species": [
                    {
                        "element": "B",
                        "occu": 1
                    }
                ],
                "abc": [
                    0.52643887,
                    0.22902927,
                    0.4228738
                ],
                "xyz": [
                    2.2643837576659,
                    1.5871716180836983,
                    3.8093212784229338
                ],
                "label": "B",
                "properties": {}
            },
            {
                "species": [
                    {
                        "element": "B",
                        "occu": 1
                    }
                ],
                "abc": [
                    0.47356113,
                    0.77097073,
                    0.5771262
                ],
                "xyz": [
                    2.0113047123341006,
                    5.3428230419163025,
                    5.198919391577067
                ],
                "label": "B",
                "properties": {}
            },
            {
                "species": [
                    {
                        "element": "O",
                        "occu": 1
                    }
                ],
                "abc": [
                    0.33152933,
                    0.89548314,
                    0.15032329
                ],
                "xyz": [
                    1.4411283698081256,
                    6.205693378320032,
                    1.3540999346275915
                ],
                "label": "O",
                "properties": {}
            },
            {
                "species": [
                    {
                        "element": "O",
                        "occu": 1
                    }
                ],
                "abc": [
                    0.76669202,
                    0.40325319,
                    0.96650519
                ],
                "xyz": [
                    3.252099373026858,
                    2.7945424533279652,
                    8.70656477438068
                ],
                "label": "O",
                "properties": {}
            },
            {
                "species": [
                    {
                        "element": "O",
                        "occu": 1
                    }
                ],
                "abc": [
                    0.33152933,
                    0.60451686,
                    0.65032329
                ],
                "xyz": [
                    1.3759753648081257,
                    4.189298611679968,
                    5.858353929627591
                ],
                "label": "O",
                "properties": {}
            },
            {
                "species": [
                    {
                        "element": "O",
                        "occu": 1
                    }
                ],
                "abc": [
                    0.69611472,
                    0.84421058,
                    0.69315061
                ],
                "xyz": [
                    2.9767559234485796,
                    5.850374811315503,
                    6.244066723071423
                ],
                "label": "O",
                "properties": {}
            },
            {
                "species": [
                    {
                        "element": "O",
                        "occu": 1
                    }
                ],
                "abc": [
                    0.23330798,
                    0.90325319,
                    0.53349481
                ],
                "xyz": [
                    0.9584360919731424,
                    6.259539783327966,
                    4.805929890619318
                ],
                "label": "O",
                "properties": {}
            },
            {
                "species": [
                    {
                        "element": "O",
                        "occu": 1
                    }
                ],
                "abc": [
                    0.21311929,
                    0.90847121,
                    0.82179381
                ],
                "xyz": [
                    0.8319177428977211,
                    6.2957006340637385,
                    7.403079132468938
                ],
                "label": "O",
                "properties": {}
            },
            {
                "species": [
                    {
                        "element": "O",
                        "occu": 1
                    }
                ],
                "abc": [
                    0.34699606,
                    0.27863902,
                    0.55351792
                ],
                "xyz": [
                    1.4567360133230498,
                    1.9309669206676334,
                    4.986277845941421
                ],
                "label": "O",
                "properties": {}
            },
            {
                "species": [
                    {
                        "element": "O",
                        "occu": 1
                    }
                ],
                "abc": [
                    0.66847067,
                    0.10451686,
                    0.84967671
                ],
                "xyz": [
                    2.834560100191875,
                    0.7243012816799677,
                    7.654140735372409
                ],
                "label": "O",
                "properties": {}
            },
            {
                "species": [
                    {
                        "element": "O",
                        "occu": 1
                    }
                ],
                "abc": [
                    0.66847067,
                    0.39548314,
                    0.34967671
                ],
                "xyz": [
                    2.899713105191875,
                    2.7406960483200327,
                    3.1498867403724087
                ],
                "label": "O",
                "properties": {}
            },
            {
                "species": [
                    {
                        "element": "O",
                        "occu": 1
                    }
                ],
                "abc": [
                    0.34699606,
                    0.22136098,
                    0.05351792
                ],
                "xyz": [
                    1.5218890183230498,
                    1.534030409332367,
                    0.4820238509414216
                ],
                "label": "O",
                "properties": {}
            },
            {
                "species": [
                    {
                        "element": "O",
                        "occu": 1
                    }
                ],
                "abc": [
                    0.78688071,
                    0.09152879,
                    0.17820619
                ],
                "xyz": [
                    3.443770727102279,
                    0.6342940259362614,
                    1.6051615375310608
                ],
                "label": "O",
                "properties": {}
            },
            {
                "species": [
                    {
                        "element": "O",
                        "occu": 1
                    }
                ],
                "abc": [
                    0.78688071,
                    0.40847121,
                    0.67820619
                ],
                "xyz": [
                    3.378617722102279,
                    2.8307033040637384,
                    6.109415532531061
                ],
                "label": "O",
                "properties": {}
            },
            {
                "species": [
                    {
                        "element": "O",
                        "occu": 1
                    }
                ],
                "abc": [
                    0.65300394,
                    0.72136098,
                    0.44648208
                ],
                "xyz": [
                    2.8189524566769504,
                    4.999027739332368,
                    4.021962824058579
                ],
                "label": "O",
                "properties": {}
            },
            {
                "species": [
                    {
                        "element": "O",
                        "occu": 1
                    }
                ],
                "abc": [
                    0.30388528,
                    0.34421058,
                    0.80684939
                ],
                "xyz": [
                    1.2337795415514206,
                    2.3853774813155026,
                    7.268427941928577
                ],
                "label": "O",
                "properties": {}
            },
            {
                "species": [
                    {
                        "element": "O",
                        "occu": 1
                    }
                ],
                "abc": [
                    0.30388528,
                    0.15578942,
                    0.30684939
                ],
                "xyz": [
                    1.2989325465514205,
                    1.0796198486844972,
                    2.7641739469285764
                ],
                "label": "O",
                "properties": {}
            },
            {
                "species": [
                    {
                        "element": "O",
                        "occu": 1
                    }
                ],
                "abc": [
                    0.69611472,
                    0.65578942,
                    0.19315061
                ],
                "xyz": [
                    3.0419089284485796,
                    4.544617178684497,
                    1.7398127280714235
                ],
                "label": "O",
                "properties": {}
            },
            {
                "species": [
                    {
                        "element": "O",
                        "occu": 1
                    }
                ],
                "abc": [
                    0.76669202,
                    0.09674681,
                    0.46650519
                ],
                "xyz": [
                    3.317252378026858,
                    0.6704548766720346,
                    4.2023107793806815
                ],
                "label": "O",
                "properties": {}
            },
            {
                "species": [
                    {
                        "element": "O",
                        "occu": 1
                    }
                ],
                "abc": [
                    0.65300394,
                    0.77863902,
                    0.94648208
                ],
                "xyz": [
                    2.7537994516769504,
                    5.395964250667633,
                    8.526216819058579
                ],
                "label": "O",
                "properties": {}
            },
            {
                "species": [
                    {
                        "element": "O",
                        "occu": 1
                    }
                ],
                "abc": [
                    0.21311929,
                    0.59152879,
                    0.32179381
                ],
                "xyz": [
                    0.8970707478977211,
                    4.099291355936262,
                    2.8988251374689393
                ],
                "label": "O",
                "properties": {}
            },
            {
                "species": [
                    {
                        "element": "O",
                        "occu": 1
                    }
                ],
                "abc": [
                    0.23330798,
                    0.59674681,
                    0.03349481
                ],
                "xyz": [
                    1.0235890969731423,
                    4.135452206672034,
                    0.3016758956193183
                ],
                "label": "O",
                "properties": {}
            }
        ]
    },
    "spacegroup": {
        "source": "spglib",
        "symbol": "P2_1/c",
        "number": 14,
        "point_group": "2/m",
        "crystal_system": "monoclinic",
        "hall": "-P 2ybc"
    },
    "dielectric": {
        "epsilon_ionic": [
            [
                6.7562927,
                0.0,
                -0.2092165
            ],
            [
                0.0,
                7.01277107,
                0.0
            ],
            [
                -0.2092165,
                0.0,
                6.01804232
            ]
        ],
        "epsilon_ionic_avg": 6.595702030000001,
        "epsilon_ionic_eig": [
            6.811460981272876,
            5.962874038727125,
            7.01277107
        ],
        "epsilon_electronic": [
            [
                3.84772477,
                0.0,
                -0.03898513
            ],
            [
                0.0,
                3.85738316,
                0.0
            ],
            [
                -0.03898304,
                0.0,
                3.82266001
            ]
        ],
        "epsilon_electronic_avg": 3.8425893133333333,
        "epsilon_electronic_eig": [
            3.876141375709778,
            3.794243404290222,
            3.85738316
        ]
    },
    "phonon": {
        "lowest_freq": -0.023747974197013532,
        "frequency": [
            -0.023747974197013532,
            -0.021506715549628505,
            -0.01447009741545486,
            3.3029288019278353,
            3.711265090031469,
            3.7743611916438677,
            3.8637362167566307,
            4.4884852434352185,
            4.732784282770895,
            5.108163642149162,
            5.367699990071402,
            5.782029972075776,
            6.785791703611205,
            6.925360366669679,
            7.130831152684774,
            7.226392972145739,
            7.98216976133596,
            8.149165111947088,
            8.282071547076656,
            8.638777522228343,
            8.939319972000538,
            9.10561412623189,
            9.12041749937573,
            9.210161353566416,
            9.515930867284842,
            9.561368938006462,
            10.108790067726265,
            10.840719102273324,
            11.057990519408621,
            11.433188728832944,
            11.66743354371133,
            11.873765825991326,
            12.326134358558761,
            12.524821953878817,
            12.769371202100631,
            13.123495972282681,
            13.717949066469604,
            13.743571977438412,
            13.863803503394415,
            13.871873075482094,
            14.355593232850476,
            14.5672584115568,
            15.271610161012521,
            15.641902093410483,
            15.729188082297936,
            16.063012783015743,
            16.303294357930522,
            16.856234008368244,
            16.954936654775118,
            17.114511078582098,
            17.907319231909607,
            18.267847054942727,
            19.01637207213983,
            19.027869674907794,
            19.29306749902944,
            19.31352586729897,
            19.673722488698466,
            19.757014022477772,
            20.44704568083974,
            20.537578557015905,
            20.607965458214117,
            21.102980921138197,
            21.56134951958988,
            22.015048287598557,
            23.088502936672707,
            23.379115111363518,
            23.538236392153394,
            24.045703520209262,
            24.190134723644984,
            24.341258954294233,
            24.426969940697493,
            24.72378528689801,
            25.81014408362255,
            25.95999471673699,
            27.21272241706505,
            27.541245814251784,
            27.8238362642231,
            28.43029788207902,
            28.615874079197045,
            28.862056166695258,
            28.955120647009775,
            29.331319449319444,
            29.484078988996615,
            30.581433139952455,
            30.84263196234704,
            30.922294787137965,
            31.232744413689524,
            31.398476743252736,
            32.21958076608724,
            32.64099871745087,
            32.64655364769227,
            33.026611808621595,
            33.24295888393592,
            33.27409291663229,
            33.534904037293856,
            34.14890090713941
        ]
    },
    "born_effective_charge": {
        "avg_abs_trace": 2.4854410416666664,
        "tensors": [
            [
                [
                    4.88436,
                    0.05013,
                    -0.20031
                ],
                [
                    -0.1261,
                    4.93727,
                    -0.10194
                ],
                [
                    -0.28577,
                    0.30648,
                    4.78606
                ]
            ],
            [
                [
                    4.88436,
                    0.05011,
                    -0.20031
                ],
                [
                    -0.12617,
                    4.93722,
                    -0.10202
                ],
                [
                    -0.2858,
                    0.30647,
                    4.78608
                ]
            ],
            [
                [
                    4.88436,
                    -0.05013,
                    -0.20031
                ],
                [
                    0.12617,
                    4.93722,
                    0.10202
                ],
                [
                    -0.28577,
                    -0.30648,
                    4.78606
                ]
            ],
            [
                [
                    4.88436,
                    -0.05011,
                    -0.20031
                ],
                [
                    0.1261,
                    4.93727,
                    0.10194
                ],
                [
                    -0.2858,
                    -0.30647,
                    4.78608
                ]
            ],
            [
                [
                    2.62424,
                    -0.07281,
                    -0.04424
                ],
                [
                    -0.11637,
                    2.48643,
                    0.17465
                ],
                [
                    0.20331,
                    0.19494,
                    2.09159
                ]
            ],
            [
                [
                    2.62425,
                    -0.07282,
                    -0.04424
                ],
                [
                    -0.11638,
                    2.48653,
                    0.17462
                ],
                [
                    0.20332,
                    0.19493,
                    2.0916
                ]
            ],
            [
                [
                    2.62425,
                    0.07282,
                    -0.04424
                ],
                [
                    0.11637,
                    2.48643,
                    -0.17465
                ],
                [
                    0.20332,
                    -0.19493,
                    2.0916
                ]
            ],
            [
                [
                    2.69213,
                    0.19651,
                    0.11945
                ],
                [
                    0.05118,
                    2.45231,
                    0.313
                ],
                [
                    0.00192,
                    0.34234,
                    2.87086
                ]
            ],
            [
                [
                    2.62424,
                    0.07281,
                    -0.04424
                ],
                [
                    0.11638,
                    2.48653,
                    -0.17462
                ],
                [
                    0.20331,
                    -0.19494,
                    2.09159
                ]
            ],
            [
                [
                    2.69212,
                    0.19651,
                    0.11945
                ],
                [
                    0.0512,
                    2.45233,
                    0.31301
                ],
                [
                    0.0019,
                    0.34235,
                    2.87086
                ]
            ],
            [
                [
                    2.69213,
                    -0.19651,
                    0.11945
                ],
                [
                    -0.0512,
                    2.45233,
                    -0.31301
                ],
                [
                    0.00192,
                    -0.34234,
                    2.87086
                ]
            ],
            [
                [
                    2.69212,
                    -0.19651,
                    0.11945
                ],
                [
                    -0.05118,
                    2.45231,
                    -0.313
                ],
                [
                    0.0019,
                    -0.34235,
                    2.87086
                ]
            ],
            [
                [
                    -1.74335,
                    -0.07986,
                    0.52944
                ],
                [
                    -0.01651,
                    -2.39777,
                    -0.43484
                ],
                [
                    0.51791,
                    -0.42495,
                    -1.70024
                ]
            ],
            [
                [
                    -2.10377,
                    -0.67389,
                    -0.391
                ],
                [
                    -0.6972,
                    -1.78231,
                    0.04645
                ],
                [
                    -0.38077,
                    0.24222,
                    -2.35581
                ]
            ],
            [
                [
                    -1.74335,
                    0.07986,
                    0.52944
                ],
                [
                    0.01641,
                    -2.39779,
                    0.43472
                ],
                [
                    0.51791,
                    0.42495,
                    -1.70024
                ]
            ],
            [
                [
                    -1.97656,
                    -0.16714,
                    -0.19039
                ],
                [
                    -0.14763,
                    -1.79715,
                    -0.08854
                ],
                [
                    -0.16575,
                    0.05946,
                    -2.0071
                ]
            ],
            [
                [
                    -2.10377,
                    0.67391,
                    -0.39098
                ],
                [
                    0.6972,
                    -1.78231,
                    -0.04645
                ],
                [
                    -0.38077,
                    -0.24212,
                    -2.35583
                ]
            ],
            [
                [
                    -2.49541,
                    -0.06327,
                    -0.36689
                ],
                [
                    -0.08153,
                    -2.21288,
                    0.46526
                ],
                [
                    -0.29799,
                    0.53377,
                    -1.4159
                ]
            ],
            [
                [
                    -1.88164,
                    -0.3579,
                    0.54392
                ],
                [
                    -0.38943,
                    -1.6859,
                    -0.32609
                ],
                [
                    0.40716,
                    -0.38077,
                    -2.2695
                ]
            ],
            [
                [
                    -1.74331,
                    -0.07989,
                    0.52946
                ],
                [
                    -0.01641,
                    -2.39779,
                    -0.43472
                ],
                [
                    0.51801,
                    -0.42497,
                    -1.7002
                ]
            ],
            [
                [
                    -1.74331,
                    0.07989,
                    0.52946
                ],
                [
                    0.01651,
                    -2.39777,
                    0.43484
                ],
                [
                    0.51801,
                    0.42497,
                    -1.7002
                ]
            ],
            [
                [
                    -1.88164,
                    0.3579,
                    0.54392
                ],
                [
                    0.38941,
                    -1.6859,
                    0.32603
                ],
                [
                    0.40716,
                    0.38077,
                    -2.2695
                ]
            ],
            [
                [
                    -2.49538,
                    -0.06328,
                    -0.3669
                ],
                [
                    -0.08157,
                    -2.21283,
                    0.46538
                ],
                [
                    -0.29801,
                    0.53365,
                    -1.41596
                ]
            ],
            [
                [
                    -2.49538,
                    0.06328,
                    -0.3669
                ],
                [
                    0.08153,
                    -2.21288,
                    -0.46526
                ],
                [
                    -0.29801,
                    -0.53365,
                    -1.41596
                ]
            ],
            [
                [
                    -1.88165,
                    -0.3579,
                    0.54391
                ],
                [
                    -0.38941,
                    -1.6859,
                    -0.32603
                ],
                [
                    0.40708,
                    -0.38077,
                    -2.26953
                ]
            ],
            [
                [
                    -1.97658,
                    0.16714,
                    -0.19035
                ],
                [
                    0.14763,
                    -1.79715,
                    0.08854
                ],
                [
                    -0.16573,
                    -0.05953,
                    -2.00698
                ]
            ],
            [
                [
                    -1.97658,
                    -0.16714,
                    -0.19035
                ],
                [
                    -0.14756,
                    -1.79713,
                    -0.08854
                ],
                [
                    -0.16573,
                    0.05953,
                    -2.00698
                ]
            ],
            [
                [
                    -1.97656,
                    0.16714,
                    -0.19039
                ],
                [
                    0.14756,
                    -1.79713,
                    0.08854
                ],
                [
                    -0.16575,
                    -0.05946,
                    -2.0071
                ]
            ],
            [
                [
                    -2.10377,
                    0.67389,
                    -0.391
                ],
                [
                    0.69729,
                    -1.78244,
                    -0.04657
                ],
                [
                    -0.38077,
                    -0.24222,
                    -2.35581
                ]
            ],
            [
                [
                    -1.88165,
                    0.3579,
                    0.54391
                ],
                [
                    0.38943,
                    -1.6859,
                    0.32609
                ],
                [
                    0.40708,
                    0.38077,
                    -2.26953
                ]
            ],
            [
                [
                    -2.49541,
                    0.06327,
                    -0.36689
                ],
                [
                    0.08157,
                    -2.21283,
                    -0.46538
                ],
                [
                    -0.29799,
                    -0.53377,
                    -1.4159
                ]
            ],
            [
                [
                    -2.10377,
                    -0.67391,
                    -0.39098
                ],
                [
                    -0.69729,
                    -1.78244,
                    0.04657
                ],
                [
                    -0.38077,
                    0.24212,
                    -2.35583
                ]
            ]
        ]
    },
    "band_gap": 4.666600000000001,
    "is_direct": false,
    "formula": "HfB2O5"
}