{
    "mp_id": "mp-5449",
    "nelements": 3,
    "nsites": 21,
    "elements": [
        "Na",
        "O",
        "Ti"
    ],
    "structure": {
        "@module": "pymatgen.core.structure",
        "@class": "Structure",
        "charge": null,
        "lattice": {
            "matrix": [
                [
                    7.58120788,
                    -1.91540864,
                    0.00347919
                ],
                [
                    7.58120788,
                    1.91540864,
                    0.00347919
                ],
                [
                    -1.32639621,
                    0.0,
                    9.12808902
                ]
            ],
            "a": 7.81943190281262,
            "b": 7.81943190281262,
            "c": 9.223954469908605,
            "alpha": 97.98870234109914,
            "beta": 97.98870234109914,
            "gamma": 28.358344208933293,
            "volume": 265.1176675195357
        },
        "sites": [
            {
                "species": [
                    {
                        "element": "Na",
                        "occu": 1
                    }
                ],
                "abc": [
                    0.46339501,
                    0.46339501,
                    0.26756105
                ],
                "xyz": [
                    6.671295840065738,
                    0.0,
                    2.445545561254355
                ],
                "label": "Na",
                "properties": {}
            },
            {
                "species": [
                    {
                        "element": "Na",
                        "occu": 1
                    }
                ],
                "abc": [
                    0.53660499,
                    0.53660499,
                    0.73243895
                ],
                "xyz": [
                    7.164723709934262,
                    0.0,
                    6.689501838745646
                ],
                "label": "Na",
                "properties": {}
            },
            {
                "species": [
                    {
                        "element": "Ti",
                        "occu": 1
                    }
                ],
                "abc": [
                    0.83286247,
                    0.83286247,
                    0.56340133
                ],
                "xyz": [
                    11.880913652219569,
                    0.0,
                    5.148572867780396
                ],
                "label": "Ti",
                "properties": {}
            },
            {
                "species": [
                    {
                        "element": "Ti",
                        "occu": 1
                    }
                ],
                "abc": [
                    0.16713753,
                    0.16713753,
                    0.43659867
                ],
                "xyz": [
                    1.9551058977804323,
                    0.0,
                    3.9864745322196056
                ],
                "label": "Ti",
                "properties": {}
            },
            {
                "species": [
                    {
                        "element": "Ti",
                        "occu": 1
                    }
                ],
                "abc": [
                    0.88466756,
                    0.88466756,
                    0.90038899
                ],
                "xyz": [
                    12.21942481024302,
                    0.0,
                    8.224986706404044
                ],
                "label": "Ti",
                "properties": {}
            },
            {
                "species": [
                    {
                        "element": "Ti",
                        "occu": 1
                    }
                ],
                "abc": [
                    0.11533244,
                    0.11533244,
                    0.09961101
                ],
                "xyz": [
                    1.6165947397569822,
                    0.0,
                    0.9100606935959574
                ],
                "label": "Ti",
                "properties": {}
            },
            {
                "species": [
                    {
                        "element": "Ti",
                        "occu": 1
                    }
                ],
                "abc": [
                    0.23061171,
                    0.23061171,
                    0.76858111
                ],
                "xyz": [
                    2.4771875547629567,
                    0.0,
                    7.017281475081043
                ],
                "label": "Ti",
                "properties": {}
            },
            {
                "species": [
                    {
                        "element": "Ti",
                        "occu": 1
                    }
                ],
                "abc": [
                    0.76938829,
                    0.76938829,
                    0.23141889
                ],
                "xyz": [
                    11.358831995237043,
                    0.0,
                    2.1177659249189578
                ],
                "label": "Ti",
                "properties": {}
            },
            {
                "species": [
                    {
                        "element": "O",
                        "occu": 1
                    }
                ],
                "abc": [
                    0.8341053,
                    0.8341053,
                    0.08191816
                ],
                "xyz": [
                    12.538395409265355,
                    0.0,
                    0.7535602784720173
                ],
                "label": "O",
                "properties": {}
            },
            {
                "species": [
                    {
                        "element": "O",
                        "occu": 1
                    }
                ],
                "abc": [
                    0.1658947,
                    0.1658947,
                    0.91808184
                ],
                "xyz": [
                    1.2976241407346456,
                    0.0,
                    8.381487121527984
                ],
                "label": "O",
                "properties": {}
            },
            {
                "species": [
                    {
                        "element": "O",
                        "occu": 1
                    }
                ],
                "abc": [
                    0.64228932,
                    0.64228932,
                    0.12236726
                ],
                "xyz": [
                    9.5763502381556,
                    0.0,
                    1.121448535571987
                ],
                "label": "O",
                "properties": {}
            },
            {
                "species": [
                    {
                        "element": "O",
                        "occu": 1
                    }
                ],
                "abc": [
                    0.35771068,
                    0.35771068,
                    0.87763274
                ],
                "xyz": [
                    4.259669311844402,
                    0.0,
                    8.013598864428014
                ],
                "label": "O",
                "properties": {}
            },
            {
                "species": [
                    {
                        "element": "O",
                        "occu": 1
                    }
                ],
                "abc": [
                    0.87447881,
                    0.87447881,
                    0.38175647
                ],
                "xyz": [
                    12.752850955579069,
                    0.0,
                    3.4907919979828876
                ],
                "label": "O",
                "properties": {}
            },
            {
                "species": [
                    {
                        "element": "O",
                        "occu": 1
                    }
                ],
                "abc": [
                    0.12552119,
                    0.12552119,
                    0.61824353
                ],
                "xyz": [
                    1.083168594420933,
                    0.0,
                    5.644255402017113
                ],
                "label": "O",
                "properties": {}
            },
            {
                "species": [
                    {
                        "element": "O",
                        "occu": 1
                    }
                ],
                "abc": [
                    0.70372267,
                    0.70372267,
                    0.42977766
                ],
                "xyz": [
                    10.10008024291061,
                    0.0,
                    3.9279455090397684
                ],
                "label": "O",
                "properties": {}
            },
            {
                "species": [
                    {
                        "element": "O",
                        "occu": 1
                    }
                ],
                "abc": [
                    0.29627733,
                    0.29627733,
                    0.57022234
                ],
                "xyz": [
                    3.7359393070893896,
                    0.0,
                    5.207101890960233
                ],
                "label": "O",
                "properties": {}
            },
            {
                "species": [
                    {
                        "element": "O",
                        "occu": 1
                    }
                ],
                "abc": [
                    0.0,
                    0.0,
                    0.0
                ],
                "xyz": [
                    0.0,
                    0.0,
                    0.0
                ],
                "label": "O",
                "properties": {}
            },
            {
                "species": [
                    {
                        "element": "O",
                        "occu": 1
                    }
                ],
                "abc": [
                    0.23860525,
                    0.23860525,
                    0.24851672
                ],
                "xyz": [
                    3.2882003674891087,
                    0.0,
                    2.2701430491179093
                ],
                "label": "O",
                "properties": {}
            },
            {
                "species": [
                    {
                        "element": "O",
                        "occu": 1
                    }
                ],
                "abc": [
                    0.76139475,
                    0.76139475,
                    0.75148328
                ],
                "xyz": [
                    10.54781918251089,
                    0.0,
                    6.8649043508820915
                ],
                "label": "O",
                "properties": {}
            },
            {
                "species": [
                    {
                        "element": "O",
                        "occu": 1
                    }
                ],
                "abc": [
                    0.06760632,
                    0.06760632,
                    0.29497017
                ],
                "xyz": [
                    0.6338278162925475,
                    0.0,
                    2.692984400469495
                ],
                "label": "O",
                "properties": {}
            },
            {
                "species": [
                    {
                        "element": "O",
                        "occu": 1
                    }
                ],
                "abc": [
                    0.93239368,
                    0.93239368,
                    0.70502983
                ],
                "xyz": [
                    13.202191733707451,
                    0.0,
                    6.442062999530505
                ],
                "label": "O",
                "properties": {}
            }
        ]
    },
    "spacegroup": {
        "source": "spglib",
        "symbol": "C2/m",
        "number": 12,
        "point_group": "2/m",
        "crystal_system": "monoclinic",
        "hall": "-C 2y"
    },
    "dielectric": {
        "epsilon_ionic": [
            [
                15.2315005,
                -4e-08,
                -2.60428226
            ],
            [
                -4e-08,
                18.56915145,
                -5e-08
            ],
            [
                -2.60428226,
                -5e-08,
                35.89530835
            ]
        ],
        "epsilon_ionic_avg": 23.231986766666665,
        "epsilon_ionic_eig": [
            36.21847480511392,
            14.908334044886073,
            18.569151450000003
        ],
        "epsilon_electronic": [
            [
                4.53947983,
                0.0,
                0.05218849
            ],
            [
                0.0,
                5.04277526,
                0.0
            ],
            [
                0.0521912,
                0.0,
                5.94635898
            ]
        ],
        "epsilon_electronic_avg": 5.17620469,
        "epsilon_electronic_eig": [
            4.537546442946968,
            5.948292367053033,
            5.04277526
        ]
    },
    "phonon": {
        "lowest_freq": -0.0882269295260054,
        "frequency": [
            -0.0882269295260054,
            -0.04614577233351256,
            -0.02947132985158986,
            1.5336170139214391,
            2.005141806901806,
            2.1179914409533582,
            2.4174904158320514,
            3.078610902416242,
            3.2899684646964027,
            3.6146640496031304,
            3.800047598224165,
            4.01884803141388,
            4.032314286086864,
            5.117809609512328,
            5.2560301724274,
            5.3735124615641405,
            5.662912766667889,
            5.944214651025123,
            6.070167724271931,
            6.697171006527462,
            6.853868814831113,
            6.88285636763099,
            7.402018695666292,
            7.797282261581733,
            7.798060642038172,
            7.806899632957767,
            7.8857291136254695,
            8.094001756804087,
            8.174711287502394,
            8.28348634971409,
            8.446446192259693,
            8.672422818391523,
            8.954540343237124,
            9.799381143348896,
            9.870000105164975,
            10.764699543972167,
            11.149125210348371,
            11.57692420170446,
            11.620578006612048,
            12.047889320703893,
            12.783971506290982,
            12.821970096146421,
            13.227005397958123,
            13.419299269907489,
            13.881323032640502,
            14.38641524183968,
            15.066741908923234,
            15.178361133280225,
            15.26746734160933,
            15.768772526571965,
            16.429655534353316,
            16.8068946725959,
            18.4332078923411,
            18.538010249372054,
            19.586990091773362,
            19.634640839094246,
            19.948791141296685,
            20.432352939477262,
            20.71690733695179,
            21.75900874788164,
            22.37125281318092,
            25.63585752206881,
            28.646700359477215
        ]
    },
    "born_effective_charge": {
        "avg_abs_trace": 3.3556658730158735,
        "tensors": [
            [
                [
                    1.60859,
                    0.0,
                    -0.03535
                ],
                [
                    0.0,
                    1.15175,
                    -2e-05
                ],
                [
                    -0.05495,
                    -0.0,
                    1.01581
                ]
            ],
            [
                [
                    1.60859,
                    0.0,
                    -0.03534
                ],
                [
                    -0.0,
                    1.15175,
                    2e-05
                ],
                [
                    -0.05495,
                    0.0,
                    1.01581
                ]
            ],
            [
                [
                    2.67784,
                    0.0,
                    0.40005
                ],
                [
                    0.00051,
                    5.02903,
                    -9e-05
                ],
                [
                    0.54402,
                    -0.0,
                    6.59781
                ]
            ],
            [
                [
                    2.67814,
                    0.0,
                    0.39997
                ],
                [
                    -0.00051,
                    5.02903,
                    9e-05
                ],
                [
                    0.5442,
                    -0.0,
                    6.59798
                ]
            ],
            [
                [
                    6.19492,
                    0.0,
                    0.97934
                ],
                [
                    0.00085,
                    6.28918,
                    0.00063
                ],
                [
                    -0.4128,
                    -0.0,
                    6.99053
                ]
            ],
            [
                [
                    6.19413,
                    0.0,
                    0.97897
                ],
                [
                    -0.00085,
                    6.28918,
                    -0.00063
                ],
                [
                    -0.41285,
                    -0.0,
                    6.9906
                ]
            ],
            [
                [
                    4.12185,
                    0.0,
                    -1.00229
                ],
                [
                    -0.00029,
                    5.05359,
                    0.00024
                ],
                [
                    0.25557,
                    -0.0,
                    6.12086
                ]
            ],
            [
                [
                    4.12191,
                    0.0,
                    -1.00238
                ],
                [
                    0.00029,
                    5.05359,
                    -0.00024
                ],
                [
                    0.25583,
                    -0.0,
                    6.12102
                ]
            ],
            [
                [
                    -2.89905,
                    0.0,
                    2.5846
                ],
                [
                    0.00034,
                    -1.05957,
                    -0.00028
                ],
                [
                    2.60049,
                    -0.0,
                    -4.69042
                ]
            ],
            [
                [
                    -2.89913,
                    0.0,
                    2.58449
                ],
                [
                    -0.00034,
                    -1.05957,
                    0.00028
                ],
                [
                    2.60117,
                    -0.0,
                    -4.69052
                ]
            ],
            [
                [
                    -1.94184,
                    0.0,
                    -0.58399
                ],
                [
                    0.00146,
                    -5.22097,
                    0.00074
                ],
                [
                    -0.67019,
                    -0.0,
                    -1.65086
                ]
            ],
            [
                [
                    -1.94185,
                    0.0,
                    -0.58419
                ],
                [
                    -0.00146,
                    -5.22097,
                    -0.00074
                ],
                [
                    -0.67006,
                    -0.0,
                    -1.65084
                ]
            ],
            [
                [
                    -1.5365,
                    0.0,
                    0.14453
                ],
                [
                    -0.00012,
                    -1.0387,
                    2e-05
                ],
                [
                    -0.31261,
                    -0.0,
                    -4.59974
                ]
            ],
            [
                [
                    -1.53544,
                    0.0,
                    0.14411
                ],
                [
                    0.00012,
                    -1.0387,
                    -2e-05
                ],
                [
                    -0.31351,
                    -0.0,
                    -4.5994
                ]
            ],
            [
                [
                    -1.36302,
                    0.0,
                    0.0525
                ],
                [
                    0.00082,
                    -4.29904,
                    -7e-05
                ],
                [
                    -0.15507,
                    -0.0,
                    -2.12405
                ]
            ],
            [
                [
                    -1.36277,
                    0.0,
                    0.05227
                ],
                [
                    -0.00082,
                    -4.29904,
                    7e-05
                ],
                [
                    -0.15523,
                    -0.0,
                    -2.12399
                ]
            ],
            [
                [
                    -6.59392,
                    0.0,
                    -3.21861
                ],
                [
                    -0.0,
                    -0.87918,
                    0.0
                ],
                [
                    -2.07964,
                    -0.0,
                    -2.55824
                ]
            ],
            [
                [
                    -1.58783,
                    0.0,
                    -0.13105
                ],
                [
                    -0.00076,
                    -4.30909,
                    0.00041
                ],
                [
                    -0.0452,
                    -0.0,
                    -2.2093
                ]
            ],
            [
                [
                    -1.58757,
                    0.0,
                    -0.13113
                ],
                [
                    0.00076,
                    -4.30909,
                    -0.00041
                ],
                [
                    -0.04485,
                    -0.0,
                    -2.20916
                ]
            ],
            [
                [
                    -1.97871,
                    0.0,
                    -0.79811
                ],
                [
                    6e-05,
                    -1.15658,
                    -0.00025
                ],
                [
                    -0.70952,
                    -0.0,
                    -4.1719
                ]
            ],
            [
                [
                    -1.97834,
                    0.0,
                    -0.79839
                ],
                [
                    -6e-05,
                    -1.15658,
                    0.00025
                ],
                [
                    -0.70985,
                    -0.0,
                    -4.17199
                ]
            ]
        ]
    },
    "band_gap": 3.0803000000000003,
    "is_direct": true,
    "formula": "Na2Ti6O13"
}