{
    "mp_id": "mp-510456",
    "nelements": 3,
    "nsites": 11,
    "elements": [
        "Mo",
        "O",
        "Zr"
    ],
    "structure": {
        "@module": "pymatgen.core.structure",
        "@class": "Structure",
        "charge": null,
        "lattice": {
            "matrix": [
                [
                    5.92137644,
                    0.0,
                    0.0
                ],
                [
                    -2.96068772,
                    5.12806197,
                    0.0
                ],
                [
                    0.0,
                    0.0,
                    6.29966782
                ]
            ],
            "a": 5.92137644,
            "b": 5.921375798200877,
            "c": 6.29966782,
            "alpha": 90.0,
            "beta": 90.0,
            "gamma": 119.99999799891276,
            "volume": 191.29058088444975
        },
        "sites": [
            {
                "species": [
                    {
                        "element": "Zr",
                        "occu": 1
                    }
                ],
                "abc": [
                    0.0,
                    0.0,
                    0.0
                ],
                "xyz": [
                    0.0,
                    0.0,
                    0.0
                ],
                "label": "Zr",
                "properties": {}
            },
            {
                "species": [
                    {
                        "element": "Mo",
                        "occu": 1
                    }
                ],
                "abc": [
                    0.333333,
                    0.666667,
                    0.28508908
                ],
                "xyz": [
                    -2.6273547200084124e-06,
                    3.41870968935399,
                    1.7959665031094054
                ],
                "label": "Mo",
                "properties": {}
            },
            {
                "species": [
                    {
                        "element": "Mo",
                        "occu": 1
                    }
                ],
                "abc": [
                    0.666667,
                    0.333333,
                    0.71491092
                ],
                "xyz": [
                    2.9606913473547203,
                    1.70935228064601,
                    4.503701316890594
                ],
                "label": "Mo",
                "properties": {}
            },
            {
                "species": [
                    {
                        "element": "O",
                        "occu": 1
                    }
                ],
                "abc": [
                    0.666667,
                    0.333333,
                    0.44213341
                ],
                "xyz": [
                    2.9606913473547203,
                    1.70935228064601,
                    2.7852936151238663
                ],
                "label": "O",
                "properties": {}
            },
            {
                "species": [
                    {
                        "element": "O",
                        "occu": 1
                    }
                ],
                "abc": [
                    0.333333,
                    0.666667,
                    0.55786659
                ],
                "xyz": [
                    -2.6273547200084124e-06,
                    3.41870968935399,
                    3.514374204876134
                ],
                "label": "O",
                "properties": {}
            },
            {
                "species": [
                    {
                        "element": "O",
                        "occu": 1
                    }
                ],
                "abc": [
                    0.83287902,
                    0.16712098,
                    0.80998515
                ],
                "xyz": [
                    4.436997173157923,
                    0.8570067419271307,
                    5.102637384132873
                ],
                "label": "O",
                "properties": {}
            },
            {
                "species": [
                    {
                        "element": "O",
                        "occu": 1
                    }
                ],
                "abc": [
                    0.16712098,
                    0.83287902,
                    0.19001485
                ],
                "xyz": [
                    -1.4763084531579231,
                    4.2710552280728695,
                    1.197030435867127
                ],
                "label": "O",
                "properties": {}
            },
            {
                "species": [
                    {
                        "element": "O",
                        "occu": 1
                    }
                ],
                "abc": [
                    0.16712098,
                    0.33424296,
                    0.19001485
                ],
                "xyz": [
                    -2.793566739933695e-06,
                    1.714018611916231,
                    1.197030435867127
                ],
                "label": "O",
                "properties": {}
            },
            {
                "species": [
                    {
                        "element": "O",
                        "occu": 1
                    }
                ],
                "abc": [
                    0.66575704,
                    0.83287902,
                    0.19001485
                ],
                "xyz": [
                    1.4763033646605033,
                    4.2710552280728695,
                    1.197030435867127
                ],
                "label": "O",
                "properties": {}
            },
            {
                "species": [
                    {
                        "element": "O",
                        "occu": 1
                    }
                ],
                "abc": [
                    0.33424296,
                    0.16712098,
                    0.80998515
                ],
                "xyz": [
                    1.4843853553394968,
                    0.8570067419271307,
                    5.102637384132873
                ],
                "label": "O",
                "properties": {}
            },
            {
                "species": [
                    {
                        "element": "O",
                        "occu": 1
                    }
                ],
                "abc": [
                    0.83287902,
                    0.66575704,
                    0.80998515
                ],
                "xyz": [
                    2.96069151356674,
                    3.414043358083769,
                    5.102637384132873
                ],
                "label": "O",
                "properties": {}
            }
        ]
    },
    "spacegroup": {
        "source": "spglib",
        "symbol": "P-3m1",
        "number": 164,
        "point_group": "-3m",
        "crystal_system": "trigonal",
        "hall": "-P 3 2\""
    },
    "dielectric": {
        "epsilon_ionic": [
            [
                7.22372041,
                -1e-08,
                0.0
            ],
            [
                -1e-08,
                7.2236392,
                1.061e-05
            ],
            [
                0.0,
                1.061e-05,
                2.1291759
            ]
        ],
        "epsilon_ionic_avg": 5.5255118366666665,
        "epsilon_ionic_eig": [
            7.223720410001231,
            7.223639200020865,
            2.129175899977903
        ],
        "epsilon_electronic": [
            [
                3.87352488,
                -0.0,
                0.0
            ],
            [
                0.0,
                3.87352481,
                -0.0
            ],
            [
                0.0,
                0.0,
                3.33175396
            ]
        ],
        "epsilon_electronic_avg": 3.6929345500000004,
        "epsilon_electronic_eig": [
            3.87352488,
            3.87352481,
            3.33175396
        ]
    },
    "phonon": {
        "lowest_freq": -0.08484531393322922,
        "frequency": [
            -0.08484531393322922,
            -0.08484531321309478,
            -0.04330850874721518,
            1.92079960678055,
            1.9207996131424871,
            2.8553315650853714,
            3.6738120862710963,
            3.6738121062285787,
            4.435322997337134,
            4.751715605559351,
            4.751715641563209,
            4.960017886510812,
            6.781680080540611,
            6.781680116578898,
            7.231556699357557,
            8.16789266815479,
            8.167892698076844,
            9.318543111270094,
            9.318543124383739,
            9.582514720612632,
            9.809291198956055,
            10.095348418758215,
            10.09534846717658,
            10.229562878824172,
            10.229562926607276,
            22.53788406348942,
            22.537884171929118,
            22.791878164963308,
            22.791878272194545,
            26.18969966224503,
            28.50524779654517,
            29.21249646081847,
            29.420341188886447
        ]
    },
    "born_effective_charge": {
        "avg_abs_trace": 2.8802572727272726,
        "tensors": [
            [
                [
                    7.94837,
                    0.0,
                    -0.0
                ],
                [
                    -0.0,
                    7.94844,
                    0.0
                ],
                [
                    0.0,
                    -0.0,
                    5.60198
                ]
            ],
            [
                [
                    4.65078,
                    -0.00068,
                    -1e-05
                ],
                [
                    -0.0,
                    4.65061,
                    3e-05
                ],
                [
                    0.0,
                    -0.0,
                    3.71107
                ]
            ],
            [
                [
                    4.65078,
                    0.00068,
                    1e-05
                ],
                [
                    -0.0,
                    4.65077,
                    6e-05
                ],
                [
                    0.0,
                    -0.0,
                    3.71144
                ]
            ],
            [
                [
                    -0.50077,
                    2e-05,
                    -2e-05
                ],
                [
                    -0.0,
                    -0.50094,
                    -5e-05
                ],
                [
                    0.0,
                    -0.0,
                    -2.04808
                ]
            ],
            [
                [
                    -0.50077,
                    -2e-05,
                    2e-05
                ],
                [
                    -0.0,
                    -0.50072,
                    1e-05
                ],
                [
                    0.0,
                    -0.0,
                    -2.05462
                ]
            ],
            [
                [
                    -3.64332,
                    1.61944,
                    -1.66158
                ],
                [
                    1.61975,
                    -1.77288,
                    0.95943
                ],
                [
                    -1.23106,
                    0.71075,
                    -1.48671
                ]
            ],
            [
                [
                    -3.64309,
                    1.62024,
                    -1.66184
                ],
                [
                    1.61982,
                    -1.77284,
                    0.95939
                ],
                [
                    -1.23245,
                    0.71156,
                    -1.48722
                ]
            ],
            [
                [
                    -0.83779,
                    0.00015,
                    0.00024
                ],
                [
                    -0.0,
                    -4.57842,
                    -1.9188
                ],
                [
                    -0.0,
                    -1.42311,
                    -1.48722
                ]
            ],
            [
                [
                    -3.64332,
                    -1.61944,
                    1.66158
                ],
                [
                    -1.61982,
                    -1.77284,
                    0.95939
                ],
                [
                    1.23245,
                    0.71156,
                    -1.48722
                ]
            ],
            [
                [
                    -3.64309,
                    -1.62024,
                    1.66184
                ],
                [
                    -1.61975,
                    -1.77288,
                    0.95943
                ],
                [
                    1.23106,
                    0.71075,
                    -1.48671
                ]
            ],
            [
                [
                    -0.83779,
                    -0.00015,
                    -0.00024
                ],
                [
                    -0.0,
                    -4.5783,
                    -1.91887
                ],
                [
                    0.0,
                    -1.4215,
                    -1.48671
                ]
            ]
        ]
    },
    "band_gap": 3.2374,
    "is_direct": false,
    "formula": "Zr(MoO4)2"
}