{
    "mp_id": "mp-550751",
    "nelements": 4,
    "nsites": 7,
    "elements": [
        "Ba",
        "Be",
        "O",
        "Si"
    ],
    "structure": {
        "@module": "pymatgen.core.structure",
        "@class": "Structure",
        "charge": null,
        "lattice": {
            "matrix": [
                [
                    4.40007393,
                    -2.62433996,
                    -0.00054078
                ],
                [
                    4.40007393,
                    2.62433996,
                    -0.00054078
                ],
                [
                    -2.83098867,
                    0.0,
                    4.14367191
                ]
            ],
            "a": 5.1232617644974425,
            "b": 5.1232617644974425,
            "c": 5.018417454476204,
            "alpha": 118.98476927952275,
            "beta": 118.98476927952275,
            "gamma": 61.6263102865103,
            "volume": 95.68832568050424
        },
        "sites": [
            {
                "species": [
                    {
                        "element": "Ba",
                        "occu": 1
                    }
                ],
                "abc": [
                    0.9802355,
                    0.9802355,
                    0.96667775
                ],
                "xyz": [
                    5.889563579829938,
                    0.0,
                    4.004535255189623
                ],
                "label": "Ba",
                "properties": {}
            },
            {
                "species": [
                    {
                        "element": "Be",
                        "occu": 1
                    }
                ],
                "abc": [
                    0.25299444,
                    0.25299444,
                    0.73689645
                ],
                "xyz": [
                    0.14024297884467618,
                    0.0,
                    3.0531834917771934
                ],
                "label": "Be",
                "properties": {}
            },
            {
                "species": [
                    {
                        "element": "Si",
                        "occu": 1
                    }
                ],
                "abc": [
                    0.50145234,
                    0.50145234,
                    0.48558917
                ],
                "xyz": [
                    3.0381572981982883,
                    0.0,
                    2.0115798527363644
                ],
                "label": "Si",
                "properties": {}
            },
            {
                "species": [
                    {
                        "element": "O",
                        "occu": 1
                    }
                ],
                "abc": [
                    0.87948351,
                    0.37633981,
                    0.55233092
                ],
                "xyz": [
                    3.9620728744073714,
                    -1.320420117532252,
                    2.2879989940934675
                ],
                "label": "O",
                "properties": {}
            },
            {
                "species": [
                    {
                        "element": "O",
                        "occu": 1
                    }
                ],
                "abc": [
                    0.32205627,
                    0.32205627,
                    0.1122483
                ],
                "xyz": [
                    2.5163691297133206,
                    0.0,
                    0.4647718044758718
                ],
                "label": "O",
                "properties": {}
            },
            {
                "species": [
                    {
                        "element": "O",
                        "occu": 1
                    }
                ],
                "abc": [
                    0.37633981,
                    0.87948351,
                    0.55233092
                ],
                "xyz": [
                    3.9620728744073714,
                    1.320420117532252,
                    2.2879989940934675
                ],
                "label": "O",
                "properties": {}
            },
            {
                "species": [
                    {
                        "element": "O",
                        "occu": 1
                    }
                ],
                "abc": [
                    0.43643713,
                    0.43643713,
                    0.73322451
                ],
                "xyz": [
                    1.76496099521774,
                    0.0,
                    3.037769772868191
                ],
                "label": "O",
                "properties": {}
            }
        ]
    },
    "spacegroup": {
        "source": "spglib",
        "symbol": "Cm",
        "number": 8,
        "point_group": "m",
        "crystal_system": "monoclinic",
        "hall": "C -2y"
    },
    "dielectric": {
        "epsilon_ionic": [
            [
                5.53228534,
                1e-08,
                -0.21507982
            ],
            [
                1e-08,
                8.33391511,
                -1.5e-07
            ],
            [
                -0.21507982,
                -1.5e-07,
                5.19825643
            ]
        ],
        "epsilon_ionic_avg": 6.354818959999996,
        "epsilon_ionic_eig": [
            5.637581658107084,
            5.092960111892904,
            8.333915110000001
        ],
        "epsilon_electronic": [
            [
                2.98158689,
                0.0,
                0.0482244
            ],
            [
                0.0,
                3.04294434,
                0.0
            ],
            [
                0.04818047,
                0.0,
                2.98271074
            ]
        ],
        "epsilon_electronic_avg": 3.0024139899999995,
        "epsilon_electronic_eig": [
            2.933943109765312,
            3.0303545202346878,
            3.04294434
        ]
    },
    "phonon": {
        "lowest_freq": -0.03401403933852078,
        "frequency": [
            -0.03401403933852078,
            -0.025218858347204012,
            -0.01890358838353945,
            1.6144276103273663,
            2.62543083584511,
            3.792131854360079,
            4.551126900695382,
            5.10785110899463,
            8.514662900885604,
            11.381746495402012,
            11.869285396470817,
            14.080771248531605,
            14.721606364375159,
            14.823144428007845,
            21.66446458693917,
            21.79446117087316,
            21.912425374503677,
            27.602319957424953,
            27.7766382543163,
            27.969826298322673,
            28.70107853295046
        ]
    },
    "born_effective_charge": {
        "avg_abs_trace": 2.1764352380952383,
        "tensors": [
            [
                [
                    2.58771,
                    0.0,
                    0.1258
                ],
                [
                    0.0,
                    2.79013,
                    -0.0
                ],
                [
                    0.16251,
                    -0.0,
                    2.61567
                ]
            ],
            [
                [
                    1.88414,
                    0.0,
                    0.13576
                ],
                [
                    -0.0,
                    1.93603,
                    0.0
                ],
                [
                    -0.0428,
                    -0.0,
                    1.89974
                ]
            ],
            [
                [
                    3.07588,
                    0.0,
                    0.00966
                ],
                [
                    0.0,
                    3.00829,
                    -0.0
                ],
                [
                    0.02675,
                    -0.0,
                    3.05499
                ]
            ],
            [
                [
                    -1.69998,
                    -0.52764,
                    -0.2792
                ],
                [
                    -0.5627,
                    -2.35933,
                    -0.16587
                ],
                [
                    -0.23307,
                    -0.1742,
                    -1.70358
                ]
            ],
            [
                [
                    -1.78762,
                    0.0,
                    -0.22465
                ],
                [
                    -0.0,
                    -1.26084,
                    -0.0
                ],
                [
                    -0.1967,
                    -0.0,
                    -2.63245
                ]
            ],
            [
                [
                    -1.69998,
                    0.52764,
                    -0.2792
                ],
                [
                    0.5627,
                    -2.35933,
                    0.16587
                ],
                [
                    -0.23307,
                    0.1742,
                    -1.70358
                ]
            ],
            [
                [
                    -2.36014,
                    0.0,
                    0.51182
                ],
                [
                    0.0,
                    -1.75495,
                    0.0
                ],
                [
                    0.51638,
                    -0.0,
                    -1.53078
                ]
            ]
        ]
    },
    "band_gap": 4.6225,
    "is_direct": false,
    "formula": "BaBeSiO4"
}