{
    "mp_id": "mp-556209",
    "nelements": 4,
    "nsites": 14,
    "elements": [
        "Li",
        "Mo",
        "O",
        "Rb"
    ],
    "structure": {
        "@module": "pymatgen.core.structure",
        "@class": "Structure",
        "charge": null,
        "lattice": {
            "matrix": [
                [
                    4.86071244,
                    -2.83259841,
                    -0.00107697
                ],
                [
                    4.86071244,
                    2.83259841,
                    -0.00107697
                ],
                [
                    -3.6460428,
                    0.0,
                    9.35888509
                ]
            ],
            "a": 5.625845744114361,
            "b": 5.625845744114361,
            "c": 10.044021018857743,
            "alpha": 108.2892688332079,
            "beta": 108.2892688332079,
            "gamma": 60.46330731515735,
            "volume": 257.69236871433117
        },
        "sites": [
            {
                "species": [
                    {
                        "element": "Rb",
                        "occu": 1
                    }
                ],
                "abc": [
                    0.96178395,
                    0.53088762,
                    0.49878414
                ],
                "xyz": [
                    5.436858946732139,
                    -1.2205562592328354,
                    4.666455888473729
                ],
                "label": "Rb",
                "properties": {}
            },
            {
                "species": [
                    {
                        "element": "Rb",
                        "occu": 1
                    }
                ],
                "abc": [
                    0.53088762,
                    0.96178395,
                    0.99878414
                ],
                "xyz": [
                    3.613837546732139,
                    1.2205562592328354,
                    9.34589843347373
                ],
                "label": "Rb",
                "properties": {}
            },
            {
                "species": [
                    {
                        "element": "Li",
                        "occu": 1
                    }
                ],
                "abc": [
                    0.86702428,
                    0.38529172,
                    0.12818896
                ],
                "xyz": [
                    5.619765525363553,
                    -1.3645548835012296,
                    1.1983570396840864
                ],
                "label": "Li",
                "properties": {}
            },
            {
                "species": [
                    {
                        "element": "Li",
                        "occu": 1
                    }
                ],
                "abc": [
                    0.38529172,
                    0.86702428,
                    0.62818896
                ],
                "xyz": [
                    3.7967441253635523,
                    1.3645548835012296,
                    5.8777995846840865
                ],
                "label": "Li",
                "properties": {}
            },
            {
                "species": [
                    {
                        "element": "Mo",
                        "occu": 1
                    }
                ],
                "abc": [
                    0.74972004,
                    0.25160295,
                    0.75172438
                ],
                "xyz": [
                    2.1263238506675326,
                    -1.410965677127827,
                    7.034223696950953
                ],
                "label": "Mo",
                "properties": {}
            },
            {
                "species": [
                    {
                        "element": "Mo",
                        "occu": 1
                    }
                ],
                "abc": [
                    0.25160295,
                    0.74972004,
                    0.25172438
                ],
                "xyz": [
                    3.9493452506675326,
                    1.410965677127827,
                    2.354781151950954
                ],
                "label": "Mo",
                "properties": {}
            },
            {
                "species": [
                    {
                        "element": "O",
                        "occu": 1
                    }
                ],
                "abc": [
                    0.99192852,
                    0.09133155,
                    0.22634728
                ],
                "xyz": [
                    4.4401438274606875,
                    -2.5510295452728178,
                    2.1171915453564676
                ],
                "label": "O",
                "properties": {}
            },
            {
                "species": [
                    {
                        "element": "O",
                        "occu": 1
                    }
                ],
                "abc": [
                    0.71390306,
                    0.2997839,
                    0.93004054
                ],
                "xyz": [
                    1.5362732021626706,
                    -1.173033274166536,
                    8.703050832456238
                ],
                "label": "O",
                "properties": {}
            },
            {
                "species": [
                    {
                        "element": "O",
                        "occu": 1
                    }
                ],
                "abc": [
                    0.57348519,
                    0.69409758,
                    0.22139013
                ],
                "xyz": [
                    5.354157449391095,
                    0.34164646414029987,
                    2.0705996381143543
                ],
                "label": "O",
                "properties": {}
            },
            {
                "species": [
                    {
                        "element": "O",
                        "occu": 1
                    }
                ],
                "abc": [
                    0.69409758,
                    0.57348519,
                    0.72139013
                ],
                "xyz": [
                    3.531136049391095,
                    -0.34164646414029987,
                    6.750042183114354
                ],
                "label": "O",
                "properties": {}
            },
            {
                "species": [
                    {
                        "element": "O",
                        "occu": 1
                    }
                ],
                "abc": [
                    0.2997839,
                    0.71390306,
                    0.43004054
                ],
                "xyz": [
                    3.35929460216267,
                    1.173033274166536,
                    4.023608287456238
                ],
                "label": "O",
                "properties": {}
            },
            {
                "species": [
                    {
                        "element": "O",
                        "occu": 1
                    }
                ],
                "abc": [
                    0.50111689,
                    0.13824275,
                    0.62852557
                ],
                "xyz": [
                    0.8161122266675265,
                    -1.0278767119941177,
                    5.8816100146052595
                ],
                "label": "O",
                "properties": {}
            },
            {
                "species": [
                    {
                        "element": "O",
                        "occu": 1
                    }
                ],
                "abc": [
                    0.13824275,
                    0.50111689,
                    0.12852557
                ],
                "xyz": [
                    2.639133626667526,
                    1.0278767119941177,
                    1.2021674696052604
                ],
                "label": "O",
                "properties": {}
            },
            {
                "species": [
                    {
                        "element": "O",
                        "occu": 1
                    }
                ],
                "abc": [
                    0.09133155,
                    0.99192852,
                    0.72634728
                ],
                "xyz": [
                    2.617122427460687,
                    2.5510295452728178,
                    6.796634090356467
                ],
                "label": "O",
                "properties": {}
            }
        ]
    },
    "spacegroup": {
        "source": "spglib",
        "symbol": "Cc",
        "number": 9,
        "point_group": "m",
        "crystal_system": "monoclinic",
        "hall": "C -2yc"
    },
    "dielectric": {
        "epsilon_ionic": [
            [
                2.74941709,
                -3.51e-06,
                0.26754198
            ],
            [
                -3.51e-06,
                3.49844315,
                -3.22e-06
            ],
            [
                0.26754198,
                -3.22e-06,
                3.02947507
            ]
        ],
        "epsilon_ionic_avg": 3.092445103333334,
        "epsilon_ionic_eig": [
            2.587474509974074,
            3.19141764995588,
            3.4984431500700475
        ],
        "epsilon_electronic": [
            [
                2.64648012,
                0.0,
                0.00507629
            ],
            [
                0.0,
                2.66808747,
                0.0
            ],
            [
                0.00507459,
                0.0,
                2.67130757
            ]
        ],
        "epsilon_electronic_avg": 2.661958386666667,
        "epsilon_electronic_eig": [
            2.6454826310785564,
            2.672305058921444,
            2.66808747
        ]
    },
    "phonon": {
        "lowest_freq": -0.08392523347269848,
        "frequency": [
            -0.08392523347269848,
            -0.05121717590529058,
            -0.032702350889934464,
            1.5124982032704888,
            1.546906193365009,
            1.9471705026059132,
            2.0354932202522966,
            2.407347220856046,
            2.4662484272527605,
            2.4819312335550103,
            2.599467665776892,
            2.7024087319845917,
            3.2458879884451584,
            3.515690972717114,
            4.0247368198567,
            4.230577129366096,
            4.765430854060019,
            5.733793569015102,
            8.545280122160609,
            8.87922034836116,
            9.037644485943247,
            9.257814558110839,
            9.400145233324094,
            9.406405194551882,
            9.472387533432892,
            9.55945049197648,
            9.590570023090844,
            9.689204124921421,
            12.893104309223391,
            12.950592851010365,
            13.201869415699642,
            13.542577157523398,
            14.070693440769553,
            14.558158398346592,
            24.386108575563746,
            24.445175375975218,
            24.516311175686283,
            24.745313887064064,
            24.896502135143155,
            26.729667979538007,
            26.78704343124653,
            26.87637764359982
        ]
    },
    "born_effective_charge": {
        "avg_abs_trace": 1.6624783333333333,
        "tensors": [
            [
                [
                    1.239,
                    -0.11697,
                    0.03154
                ],
                [
                    0.04865,
                    1.27359,
                    0.05095
                ],
                [
                    -0.03477,
                    -0.02363,
                    1.29551
                ]
            ],
            [
                [
                    1.239,
                    0.11697,
                    0.03154
                ],
                [
                    -0.04865,
                    1.2736,
                    -0.05096
                ],
                [
                    -0.03477,
                    0.02363,
                    1.29551
                ]
            ],
            [
                [
                    1.24938,
                    -0.17106,
                    -0.26312
                ],
                [
                    0.22942,
                    1.25965,
                    -0.04817
                ],
                [
                    0.18254,
                    -0.06813,
                    1.28033
                ]
            ],
            [
                [
                    1.24938,
                    0.17106,
                    -0.26312
                ],
                [
                    -0.22942,
                    1.25965,
                    0.04817
                ],
                [
                    0.18254,
                    0.06813,
                    1.28033
                ]
            ],
            [
                [
                    3.28304,
                    0.01377,
                    0.12125
                ],
                [
                    0.1616,
                    3.30432,
                    0.00728
                ],
                [
                    -0.02896,
                    0.04394,
                    3.2712
                ]
            ],
            [
                [
                    3.28304,
                    -0.01377,
                    0.12125
                ],
                [
                    -0.1616,
                    3.30432,
                    -0.00728
                ],
                [
                    -0.02896,
                    -0.04394,
                    3.2712
                ]
            ],
            [
                [
                    -0.91002,
                    -0.59211,
                    0.0842
                ],
                [
                    -0.66687,
                    -2.62075,
                    0.3339
                ],
                [
                    0.02512,
                    0.33901,
                    -0.81708
                ]
            ],
            [
                [
                    -1.00555,
                    0.02471,
                    0.59
                ],
                [
                    -0.01674,
                    -0.68966,
                    -0.19878
                ],
                [
                    0.57959,
                    -0.2209,
                    -2.69734
                ]
            ],
            [
                [
                    -1.90652,
                    1.03447,
                    0.39464
                ],
                [
                    1.0155,
                    -1.63878,
                    -0.21468
                ],
                [
                    0.33083,
                    -0.21649,
                    -0.86205
                ]
            ],
            [
                [
                    -1.90652,
                    -1.03447,
                    0.39464
                ],
                [
                    -1.01549,
                    -1.63877,
                    0.21466
                ],
                [
                    0.33083,
                    0.21649,
                    -0.86205
                ]
            ],
            [
                [
                    -1.00555,
                    -0.02471,
                    0.59
                ],
                [
                    0.01676,
                    -0.68966,
                    0.19878
                ],
                [
                    0.57959,
                    0.2209,
                    -2.69734
                ]
            ],
            [
                [
                    -1.94932,
                    0.24104,
                    -0.95851
                ],
                [
                    0.28851,
                    -0.88839,
                    0.26417
                ],
                [
                    -1.05436,
                    0.29178,
                    -1.47057
                ]
            ],
            [
                [
                    -1.94932,
                    -0.24104,
                    -0.95851
                ],
                [
                    -0.28852,
                    -0.8884,
                    -0.26417
                ],
                [
                    -1.05436,
                    -0.29178,
                    -1.47057
                ]
            ],
            [
                [
                    -0.91002,
                    0.59211,
                    0.0842
                ],
                [
                    0.66685,
                    -2.62073,
                    -0.33388
                ],
                [
                    0.02512,
                    -0.33901,
                    -0.81708
                ]
            ]
        ]
    },
    "band_gap": 4.4865,
    "is_direct": false,
    "formula": "RbLiMoO4"
}