{
    "mp_id": "mp-540633",
    "nelements": 4,
    "nsites": 28,
    "elements": [
        "Ge",
        "Nb",
        "O",
        "Rb"
    ],
    "structure": {
        "@module": "pymatgen.core.structure",
        "@class": "Structure",
        "charge": null,
        "lattice": {
            "matrix": [
                [
                    7.11952577,
                    -0.0,
                    0.0
                ],
                [
                    -3.55976238,
                    6.16569039,
                    0.0
                ],
                [
                    0.0,
                    0.0,
                    10.35378264
                ]
            ],
            "a": 7.11952577,
            "b": 7.1195256996096035,
            "c": 10.35378264,
            "alpha": 90.0,
            "beta": 90.0,
            "gamma": 119.99999563425487,
            "volume": 454.4978390418287
        },
        "sites": [
            {
                "species": [
                    {
                        "element": "Rb",
                        "occu": 1
                    }
                ],
                "abc": [
                    0.666667,
                    0.333333,
                    0.0
                ],
                "xyz": [
                    3.55976661309605,
                    2.05522807476987,
                    0.0
                ],
                "label": "Rb",
                "properties": {}
            },
            {
                "species": [
                    {
                        "element": "Rb",
                        "occu": 1
                    }
                ],
                "abc": [
                    0.666667,
                    0.333333,
                    0.5
                ],
                "xyz": [
                    3.55976661309605,
                    2.05522807476987,
                    5.17689132
                ],
                "label": "Rb",
                "properties": {}
            },
            {
                "species": [
                    {
                        "element": "Nb",
                        "occu": 1
                    }
                ],
                "abc": [
                    0.333333,
                    0.666667,
                    0.0
                ],
                "xyz": [
                    -3.2230960500534422e-06,
                    4.11046231523013,
                    0.0
                ],
                "label": "Nb",
                "properties": {}
            },
            {
                "species": [
                    {
                        "element": "Nb",
                        "occu": 1
                    }
                ],
                "abc": [
                    0.333333,
                    0.666667,
                    0.5
                ],
                "xyz": [
                    -3.2230960500534422e-06,
                    4.11046231523013,
                    5.17689132
                ],
                "label": "Nb",
                "properties": {}
            },
            {
                "species": [
                    {
                        "element": "Ge",
                        "occu": 1
                    }
                ],
                "abc": [
                    0.07524017,
                    0.28983237,
                    0.25
                ],
                "xyz": [
                    -0.49606003797805964,
                    1.7870166584199243,
                    2.58844566
                ],
                "label": "Ge",
                "properties": {}
            },
            {
                "species": [
                    {
                        "element": "Ge",
                        "occu": 1
                    }
                ],
                "abc": [
                    0.2145922,
                    0.92475983,
                    0.25
                ],
                "xyz": [
                    -1.7641305554282014,
                    5.7017827968890336,
                    2.58844566
                ],
                "label": "Ge",
                "properties": {}
            },
            {
                "species": [
                    {
                        "element": "Ge",
                        "occu": 1
                    }
                ],
                "abc": [
                    0.71016763,
                    0.7854078,
                    0.25
                ],
                "xyz": [
                    2.2601916034062617,
                    4.842581324691042,
                    2.58844566
                ],
                "label": "Ge",
                "properties": {}
            },
            {
                "species": [
                    {
                        "element": "Ge",
                        "occu": 1
                    }
                ],
                "abc": [
                    0.71016763,
                    0.92475983,
                    0.75
                ],
                "xyz": [
                    1.7641314894356301,
                    5.7017827968890336,
                    7.765336980000001
                ],
                "label": "Ge",
                "properties": {}
            },
            {
                "species": [
                    {
                        "element": "Ge",
                        "occu": 1
                    }
                ],
                "abc": [
                    0.2145922,
                    0.28983237,
                    0.75
                ],
                "xyz": [
                    0.49606033070875344,
                    1.7870166584199243,
                    7.765336980000001
                ],
                "label": "Ge",
                "properties": {}
            },
            {
                "species": [
                    {
                        "element": "Ge",
                        "occu": 1
                    }
                ],
                "abc": [
                    0.07524017,
                    0.7854078,
                    0.75
                ],
                "xyz": [
                    -2.260190810144383,
                    4.842581324691042,
                    7.765336980000001
                ],
                "label": "Ge",
                "properties": {}
            },
            {
                "species": [
                    {
                        "element": "O",
                        "occu": 1
                    }
                ],
                "abc": [
                    0.26850737,
                    0.19935183,
                    0.25
                ],
                "xyz": [
                    1.2019999953317697,
                    1.2291416624599136,
                    2.58844566
                ],
                "label": "O",
                "properties": {}
            },
            {
                "species": [
                    {
                        "element": "O",
                        "occu": 1
                    }
                ],
                "abc": [
                    0.93084445,
                    0.73149263,
                    0.25
                ],
                "xyz": [
                    4.023231104115217,
                    4.5101570791468255,
                    2.58844566
                ],
                "label": "O",
                "properties": {}
            },
            {
                "species": [
                    {
                        "element": "O",
                        "occu": 1
                    }
                ],
                "abc": [
                    0.80064817,
                    0.06915555,
                    0.25
                ],
                "xyz": [
                    5.454057953760132,
                    0.42639171005016446,
                    2.58844566
                ],
                "label": "O",
                "properties": {}
            },
            {
                "species": [
                    {
                        "element": "O",
                        "occu": 1
                    }
                ],
                "abc": [
                    0.80064817,
                    0.73149263,
                    0.75
                ],
                "xyz": [
                    3.0962953334970815,
                    4.5101570791468255,
                    7.765336980000001
                ],
                "label": "O",
                "properties": {}
            },
            {
                "species": [
                    {
                        "element": "O",
                        "occu": 1
                    }
                ],
                "abc": [
                    0.93084445,
                    0.19935183,
                    0.75
                ],
                "xyz": [
                    5.917525904818321,
                    1.2291416624599136,
                    7.765336980000001
                ],
                "label": "O",
                "properties": {}
            },
            {
                "species": [
                    {
                        "element": "O",
                        "occu": 1
                    }
                ],
                "abc": [
                    0.26850737,
                    0.06915555,
                    0.75
                ],
                "xyz": [
                    1.6654678148917161,
                    0.42639171005016446,
                    7.765336980000001
                ],
                "label": "O",
                "properties": {}
            },
            {
                "species": [
                    {
                        "element": "O",
                        "occu": 1
                    }
                ],
                "abc": [
                    0.09705091,
                    0.43973408,
                    0.1097284
                ],
                "xyz": [
                    -0.8743923804409598,
                    2.7112641912114914,
                    1.136104003034976
                ],
                "label": "O",
                "properties": {}
            },
            {
                "species": [
                    {
                        "element": "O",
                        "occu": 1
                    }
                ],
                "abc": [
                    0.34268317,
                    0.90294909,
                    0.3902716
                ],
                "xyz": [
                    -0.7745425418769432,
                    5.567304526872245,
                    4.040787316965024
                ],
                "label": "O",
                "properties": {}
            },
            {
                "species": [
                    {
                        "element": "O",
                        "occu": 1
                    }
                ],
                "abc": [
                    0.56026592,
                    0.65731683,
                    0.3902716
                ],
                "xyz": [
                    1.6489359323179031,
                    4.0528120619162635,
                    4.040787316965024
                ],
                "label": "O",
                "properties": {}
            },
            {
                "species": [
                    {
                        "element": "O",
                        "occu": 1
                    }
                ],
                "abc": [
                    0.56026592,
                    0.65731683,
                    0.1097284
                ],
                "xyz": [
                    1.6489359323179031,
                    4.0528120619162635,
                    1.136104003034976
                ],
                "label": "O",
                "properties": {}
            },
            {
                "species": [
                    {
                        "element": "O",
                        "occu": 1
                    }
                ],
                "abc": [
                    0.34268317,
                    0.90294909,
                    0.1097284
                ],
                "xyz": [
                    -0.7745425418769432,
                    5.567304526872245,
                    1.136104003034976
                ],
                "label": "O",
                "properties": {}
            },
            {
                "species": [
                    {
                        "element": "O",
                        "occu": 1
                    }
                ],
                "abc": [
                    0.56026592,
                    0.90294909,
                    0.8902716
                ],
                "xyz": [
                    0.7745434538555243,
                    5.567304526872245,
                    9.217678636965024
                ],
                "label": "O",
                "properties": {}
            },
            {
                "species": [
                    {
                        "element": "O",
                        "occu": 1
                    }
                ],
                "abc": [
                    0.34268317,
                    0.43973408,
                    0.8902716
                ],
                "xyz": [
                    0.8743928245723804,
                    2.7112641912114914,
                    9.217678636965024
                ],
                "label": "O",
                "properties": {}
            },
            {
                "species": [
                    {
                        "element": "O",
                        "occu": 1
                    }
                ],
                "abc": [
                    0.09705091,
                    0.65731683,
                    0.8902716
                ],
                "xyz": [
                    -1.6489352684279046,
                    4.0528120619162635,
                    9.217678636965024
                ],
                "label": "O",
                "properties": {}
            },
            {
                "species": [
                    {
                        "element": "O",
                        "occu": 1
                    }
                ],
                "abc": [
                    0.34268317,
                    0.43973408,
                    0.6097284
                ],
                "xyz": [
                    0.8743928245723804,
                    2.7112641912114914,
                    6.312995323034976
                ],
                "label": "O",
                "properties": {}
            },
            {
                "species": [
                    {
                        "element": "O",
                        "occu": 1
                    }
                ],
                "abc": [
                    0.09705091,
                    0.65731683,
                    0.6097284
                ],
                "xyz": [
                    -1.6489352684279046,
                    4.0528120619162635,
                    6.312995323034976
                ],
                "label": "O",
                "properties": {}
            },
            {
                "species": [
                    {
                        "element": "O",
                        "occu": 1
                    }
                ],
                "abc": [
                    0.09705091,
                    0.43973408,
                    0.3902716
                ],
                "xyz": [
                    -0.8743923804409598,
                    2.7112641912114914,
                    4.040787316965024
                ],
                "label": "O",
                "properties": {}
            },
            {
                "species": [
                    {
                        "element": "O",
                        "occu": 1
                    }
                ],
                "abc": [
                    0.56026592,
                    0.90294909,
                    0.6097284
                ],
                "xyz": [
                    0.7745434538555243,
                    5.567304526872245,
                    6.312995323034976
                ],
                "label": "O",
                "properties": {}
            }
        ]
    },
    "spacegroup": {
        "source": "spglib",
        "symbol": "P-6c2",
        "number": 188,
        "point_group": "-6m2",
        "crystal_system": "hexagonal",
        "hall": "P -6c 2"
    },
    "dielectric": {
        "epsilon_ionic": [
            [
                5.53369665,
                -0.00039194,
                0.0
            ],
            [
                -0.00039194,
                5.53283406,
                0.0
            ],
            [
                0.0,
                0.0,
                8.74818127
            ]
        ],
        "epsilon_ionic_avg": 6.604903993333333,
        "epsilon_ionic_eig": [
            5.533848134838897,
            5.532682575161103,
            8.74818127
        ],
        "epsilon_electronic": [
            [
                3.2446743,
                -0.0,
                0.0
            ],
            [
                0.0,
                3.2446739,
                -0.0
            ],
            [
                0.0,
                0.0,
                3.68487869
            ]
        ],
        "epsilon_electronic_avg": 3.3914089633333333,
        "epsilon_electronic_eig": [
            3.2446743,
            3.2446739,
            3.68487869
        ]
    },
    "phonon": {
        "lowest_freq": -0.12613345080516816,
        "frequency": [
            -0.12613345080516816,
            -0.03883370853826998,
            -0.038833706146738076,
            1.4576600841220997,
            1.4786941717675892,
            1.5576723454875125,
            1.557672367453633,
            1.9244639845799425,
            1.9244640988767618,
            2.3104408895616504,
            2.310441032365636,
            2.907768927469688,
            3.186125610296963,
            3.186125786724497,
            3.259179396925886,
            3.259179408174122,
            3.5429062051407434,
            3.5429063362083513,
            3.5492241322406657,
            3.8112708586592037,
            4.352246609255702,
            4.607525814464335,
            4.607525899334224,
            4.691154537292494,
            4.691154680562205,
            4.925580471810678,
            4.925580484215313,
            5.475079706478968,
            5.475079728798289,
            5.804500381702533,
            6.186943883152451,
            6.186943942406293,
            6.7485137598950775,
            6.908129097495166,
            6.964487935382386,
            7.143934792835408,
            7.312710904687158,
            7.312710921397796,
            7.314658721338366,
            7.31465877145693,
            8.528651542460933,
            8.797176265967389,
            9.16589686078393,
            9.165896914112073,
            9.172963395469063,
            9.17296356865201,
            10.91979801835785,
            10.940310701111681,
            11.26480613096856,
            11.264806152664463,
            12.11842485446645,
            12.118424985556164,
            12.652259962651177,
            12.65226017513507,
            13.159963798960156,
            13.161450288466755,
            13.556840989129162,
            13.556841367713133,
            13.708857329878573,
            13.866289995330714,
            14.792425709557298,
            14.935285182710194,
            16.05869142142921,
            16.058691649716923,
            16.212967529787516,
            16.212967755902934,
            21.274047116149138,
            22.415302953654976,
            22.415303062687688,
            22.692950788182547,
            22.692951057429294,
            22.93765292777806,
            22.937653140877572,
            23.12171818888271,
            23.12171845313657,
            24.209680294890223,
            24.249474434258662,
            26.363451504550632,
            26.706081811126925,
            26.70608190264171,
            26.844112070420937,
            26.844112206987273,
            27.94435013243905,
            28.361302687159892
        ]
    },
    "born_effective_charge": {
        "avg_abs_trace": 2.725698333333334,
        "tensors": [
            [
                [
                    1.42656,
                    -1e-05,
                    0.00026
                ],
                [
                    -0.0,
                    1.42612,
                    0.0
                ],
                [
                    -0.0,
                    -0.0,
                    1.03901
                ]
            ],
            [
                [
                    1.42656,
                    -1e-05,
                    -0.00026
                ],
                [
                    -0.0,
                    1.42612,
                    0.0
                ],
                [
                    -0.0,
                    -0.0,
                    1.03901
                ]
            ],
            [
                [
                    5.67563,
                    -0.00062,
                    0.00094
                ],
                [
                    -0.0,
                    5.6749,
                    0.0
                ],
                [
                    -0.0,
                    -0.0,
                    8.06383
                ]
            ],
            [
                [
                    5.67563,
                    -0.00062,
                    -0.00094
                ],
                [
                    -0.0,
                    5.6749,
                    0.0
                ],
                [
                    -0.0,
                    -0.0,
                    8.06383
                ]
            ],
            [
                [
                    2.83316,
                    0.33384,
                    0.0
                ],
                [
                    -0.50517,
                    4.52574,
                    0.0
                ],
                [
                    3e-05,
                    -2e-05,
                    3.95264
                ]
            ],
            [
                [
                    4.17424,
                    -0.27062,
                    0.0
                ],
                [
                    -1.10914,
                    3.18236,
                    0.0
                ],
                [
                    -4e-05,
                    -2e-05,
                    3.95264
                ]
            ],
            [
                [
                    4.02785,
                    1.19369,
                    0.0
                ],
                [
                    0.35626,
                    3.33084,
                    0.0
                ],
                [
                    0.0,
                    4e-05,
                    3.95264
                ]
            ],
            [
                [
                    4.1762,
                    0.26977,
                    0.0
                ],
                [
                    1.10914,
                    3.18236,
                    0.0
                ],
                [
                    4e-05,
                    -2e-05,
                    3.95264
                ]
            ],
            [
                [
                    2.83289,
                    -0.3354,
                    0.0
                ],
                [
                    0.50517,
                    4.52574,
                    0.0
                ],
                [
                    -3e-05,
                    -2e-05,
                    3.95264
                ]
            ],
            [
                [
                    4.02916,
                    -1.19663,
                    0.0
                ],
                [
                    -0.35626,
                    3.33084,
                    0.0
                ],
                [
                    -0.0,
                    4e-05,
                    3.95264
                ]
            ],
            [
                [
                    -2.01297,
                    0.83338,
                    0.0
                ],
                [
                    1.20859,
                    -2.4496,
                    0.0
                ],
                [
                    1e-05,
                    6e-05,
                    -1.09075
                ]
            ],
            [
                [
                    -3.2238,
                    -0.50898,
                    0.0
                ],
                [
                    -0.13407,
                    -1.23793,
                    0.0
                ],
                [
                    5e-05,
                    -4e-05,
                    -1.09075
                ]
            ],
            [
                [
                    -1.45565,
                    -0.88622,
                    0.0
                ],
                [
                    -0.51242,
                    -3.0067,
                    0.0
                ],
                [
                    -6e-05,
                    -2e-05,
                    -1.09075
                ]
            ],
            [
                [
                    -3.22511,
                    0.50884,
                    0.0
                ],
                [
                    0.13407,
                    -1.23793,
                    0.0
                ],
                [
                    -5e-05,
                    -4e-05,
                    -1.09075
                ]
            ],
            [
                [
                    -2.01287,
                    -0.83293,
                    0.0
                ],
                [
                    -1.20859,
                    -2.4496,
                    0.0
                ],
                [
                    -1e-05,
                    6e-05,
                    -1.09075
                ]
            ],
            [
                [
                    -1.45628,
                    0.88801,
                    0.0
                ],
                [
                    0.51242,
                    -3.0067,
                    0.0
                ],
                [
                    6e-05,
                    -2e-05,
                    -1.09075
                ]
            ],
            [
                [
                    -1.28683,
                    -0.44967,
                    0.24303
                ],
                [
                    -0.46697,
                    -2.52817,
                    1.3335
                ],
                [
                    0.44904,
                    1.65101,
                    -2.9481
                ]
            ],
            [
                [
                    -1.82063,
                    0.77573,
                    -1.03251
                ],
                [
                    0.75799,
                    -1.99429,
                    0.87792
                ],
                [
                    -1.20531,
                    1.21434,
                    -2.94808
                ]
            ],
            [
                [
                    -2.61524,
                    -0.29865,
                    1.27576
                ],
                [
                    -0.3168,
                    -1.2004,
                    0.45571
                ],
                [
                    1.6543,
                    0.43666,
                    -2.94808
                ]
            ],
            [
                [
                    -2.61524,
                    -0.29865,
                    -1.27576
                ],
                [
                    -0.3168,
                    -1.2004,
                    -0.45571
                ],
                [
                    -1.65433,
                    -0.43663,
                    -2.9481
                ]
            ],
            [
                [
                    -1.82063,
                    0.77573,
                    1.03251
                ],
                [
                    0.75799,
                    -1.99429,
                    -0.87792
                ],
                [
                    1.2053,
                    -1.21438,
                    -2.9481
                ]
            ],
            [
                [
                    -1.82138,
                    -0.77518,
                    1.03338
                ],
                [
                    -0.75799,
                    -1.99429,
                    0.87792
                ],
                [
                    1.20531,
                    1.21434,
                    -2.94808
                ]
            ],
            [
                [
                    -1.28654,
                    0.44976,
                    0.24416
                ],
                [
                    0.46697,
                    -2.52817,
                    -1.3335
                ],
                [
                    0.44899,
                    -1.651,
                    -2.94808
                ]
            ],
            [
                [
                    -2.61497,
                    0.30025,
                    -1.27731
                ],
                [
                    0.3168,
                    -1.2004,
                    0.45571
                ],
                [
                    -1.6543,
                    0.43666,
                    -2.94808
                ]
            ],
            [
                [
                    -1.28654,
                    0.44976,
                    -0.24416
                ],
                [
                    0.46697,
                    -2.52817,
                    1.3335
                ],
                [
                    -0.44904,
                    1.65101,
                    -2.9481
                ]
            ],
            [
                [
                    -2.61497,
                    0.30025,
                    1.27731
                ],
                [
                    0.3168,
                    -1.2004,
                    -0.45571
                ],
                [
                    1.65433,
                    -0.43663,
                    -2.9481
                ]
            ],
            [
                [
                    -1.28683,
                    -0.44967,
                    -0.24303
                ],
                [
                    -0.46697,
                    -2.52817,
                    -1.3335
                ],
                [
                    -0.44899,
                    -1.651,
                    -2.94808
                ]
            ],
            [
                [
                    -1.82138,
                    -0.77518,
                    -1.03338
                ],
                [
                    -0.75799,
                    -1.99429,
                    -0.87792
                ],
                [
                    -1.2053,
                    -1.21438,
                    -2.9481
                ]
            ]
        ]
    },
    "band_gap": 3.2741,
    "is_direct": false,
    "formula": "RbNb(GeO3)3"
}