{
    "mp_id": "mp-558102",
    "nelements": 4,
    "nsites": 18,
    "elements": [
        "K",
        "Li",
        "O",
        "Si"
    ],
    "structure": {
        "@module": "pymatgen.core.structure",
        "@class": "Structure",
        "charge": null,
        "lattice": {
            "matrix": [
                [
                    6.01722821,
                    0.0,
                    0.00107016
                ],
                [
                    0.0,
                    4.83777329,
                    0.0
                ],
                [
                    -0.5090091,
                    0.0,
                    8.2153608
                ]
            ],
            "a": 6.017228305163618,
            "b": 4.83777329,
            "c": 8.231114343638986,
            "alpha": 90.0,
            "beta": 93.53522217549772,
            "gamma": 90.0,
            "volume": 239.15167240541263
        },
        "sites": [
            {
                "species": [
                    {
                        "element": "K",
                        "occu": 1
                    }
                ],
                "abc": [
                    0.97123219,
                    0.68709585,
                    0.31244998
                ],
                "xyz": [
                    5.685085849013262,
                    3.3240139507998463,
                    2.5679286914932344
                ],
                "label": "K",
                "properties": {}
            },
            {
                "species": [
                    {
                        "element": "K",
                        "occu": 1
                    }
                ],
                "abc": [
                    0.02876781,
                    0.18709585,
                    0.68755002
                ],
                "xyz": [
                    -0.17686673901326191,
                    0.9051273057998466,
                    5.648502268506765
                ],
                "label": "K",
                "properties": {}
            },
            {
                "species": [
                    {
                        "element": "Li",
                        "occu": 1
                    }
                ],
                "abc": [
                    0.87063382,
                    0.70120086,
                    0.90561879
                ],
                "xyz": [
                    4.777834177043073,
                    3.39225079143303,
                    7.440916824598243
                ],
                "label": "Li",
                "properties": {}
            },
            {
                "species": [
                    {
                        "element": "Li",
                        "occu": 1
                    }
                ],
                "abc": [
                    0.12936618,
                    0.20120086,
                    0.09438121
                ],
                "xyz": [
                    0.7303849329569267,
                    0.9733641464330295,
                    0.7755141354017566
                ],
                "label": "Li",
                "properties": {}
            },
            {
                "species": [
                    {
                        "element": "Si",
                        "occu": 1
                    }
                ],
                "abc": [
                    0.63136622,
                    0.22050745,
                    0.06410672
                ],
                "xyz": [
                    3.766443725973914,
                    1.0667650518560106,
                    0.5273354973785712
                ],
                "label": "Si",
                "properties": {}
            },
            {
                "species": [
                    {
                        "element": "Si",
                        "occu": 1
                    }
                ],
                "abc": [
                    0.4413685,
                    0.13435668,
                    0.39356158
                ],
                "xyz": [
                    2.455488563575007,
                    0.6499871578370773,
                    3.2337227116320237
                ],
                "label": "Si",
                "properties": {}
            },
            {
                "species": [
                    {
                        "element": "Si",
                        "occu": 1
                    }
                ],
                "abc": [
                    0.5586315,
                    0.63435668,
                    0.60643842
                ],
                "xyz": [
                    3.0527305464249928,
                    3.0688738028370772,
                    4.982708248367976
                ],
                "label": "Si",
                "properties": {}
            },
            {
                "species": [
                    {
                        "element": "Si",
                        "occu": 1
                    }
                ],
                "abc": [
                    0.36863378,
                    0.72050745,
                    0.93589328
                ],
                "xyz": [
                    1.741775384026086,
                    3.485651696856011,
                    7.689095462621428
                ],
                "label": "Si",
                "properties": {}
            },
            {
                "species": [
                    {
                        "element": "O",
                        "occu": 1
                    }
                ],
                "abc": [
                    0.85538252,
                    0.34992557,
                    0.00715717
                ],
                "xyz": [
                    5.143388765024642,
                    1.6928605760340254,
                    0.05971413001453919
                ],
                "label": "O",
                "properties": {}
            },
            {
                "species": [
                    {
                        "element": "O",
                        "occu": 1
                    }
                ],
                "abc": [
                    0.19178654,
                    0.19241177,
                    0.32724378
                ],
                "xyz": [
                    0.9874533168478955,
                    0.9308445215876234,
                    2.68863096453947
                ],
                "label": "O",
                "properties": {}
            },
            {
                "species": [
                    {
                        "element": "O",
                        "occu": 1
                    }
                ],
                "abc": [
                    0.40489562,
                    0.39709713,
                    0.00128198
                ],
                "xyz": [
                    2.435696807283422,
                    1.921065889049658,
                    0.0109652313350832
                ],
                "label": "O",
                "properties": {}
            },
            {
                "species": [
                    {
                        "element": "O",
                        "occu": 1
                    }
                ],
                "abc": [
                    0.48088814,
                    0.80377755,
                    0.43849995
                ],
                "xyz": [
                    2.6704132169628845,
                    3.8884935624916395,
                    3.6029499272838623
                ],
                "label": "O",
                "properties": {}
            },
            {
                "species": [
                    {
                        "element": "O",
                        "occu": 1
                    }
                ],
                "abc": [
                    0.36644972,
                    0.70692915,
                    0.73623616
                ],
                "xyz": [
                    1.8302606875415448,
                    3.4199629597924037,
                    6.0488378482388825
                ],
                "label": "O",
                "properties": {}
            },
            {
                "species": [
                    {
                        "element": "O",
                        "occu": 1
                    }
                ],
                "abc": [
                    0.63355028,
                    0.20692915,
                    0.26376384
                ],
                "xyz": [
                    3.677958422458455,
                    1.0010763147924036,
                    2.167593111761117
                ],
                "label": "O",
                "properties": {}
            },
            {
                "species": [
                    {
                        "element": "O",
                        "occu": 1
                    }
                ],
                "abc": [
                    0.59510438,
                    0.89709713,
                    0.99871802
                ],
                "xyz": [
                    3.072522302716578,
                    4.339952534049658,
                    8.205465728664915
                ],
                "label": "O",
                "properties": {}
            },
            {
                "species": [
                    {
                        "element": "O",
                        "occu": 1
                    }
                ],
                "abc": [
                    0.51911186,
                    0.30377755,
                    0.56150005
                ],
                "xyz": [
                    2.8378058930371153,
                    1.4696069174916397,
                    4.6134810327161375
                ],
                "label": "O",
                "properties": {}
            },
            {
                "species": [
                    {
                        "element": "O",
                        "occu": 1
                    }
                ],
                "abc": [
                    0.80821346,
                    0.69241177,
                    0.67275622
                ],
                "xyz": [
                    4.520765793152105,
                    3.3497311665876235,
                    5.527799995460529
                ],
                "label": "O",
                "properties": {}
            },
            {
                "species": [
                    {
                        "element": "O",
                        "occu": 1
                    }
                ],
                "abc": [
                    0.14461748,
                    0.84992557,
                    0.99284283
                ],
                "xyz": [
                    0.3648303449753577,
                    4.111747221034026,
                    8.156716829985461
                ],
                "label": "O",
                "properties": {}
            }
        ]
    },
    "spacegroup": {
        "source": "spglib",
        "symbol": "P2_1",
        "number": 4,
        "point_group": "2",
        "crystal_system": "monoclinic",
        "hall": "P 2yb"
    },
    "dielectric": {
        "epsilon_ionic": [
            [
                3.99037087,
                -8.34e-06,
                -0.23459426
            ],
            [
                -8.34e-06,
                3.53878789,
                2.973e-05
            ],
            [
                -0.23459426,
                2.973e-05,
                5.80253447
            ]
        ],
        "epsilon_ionic_avg": 4.443897743333335,
        "epsilon_ionic_eig": [
            5.8324113741518815,
            3.9604939663033023,
            3.538787889544823
        ],
        "epsilon_electronic": [
            [
                2.48899722,
                0.0,
                -0.01733089
            ],
            [
                0.0,
                2.5285706,
                0.0
            ],
            [
                -0.01733112,
                0.0,
                2.49983143
            ]
        ],
        "epsilon_electronic_avg": 2.50579975,
        "epsilon_electronic_eig": [
            2.4762564407378447,
            2.512572209262155,
            2.5285706
        ]
    },
    "phonon": {
        "lowest_freq": -0.15087557859495904,
        "frequency": [
            -0.15087557859495904,
            -0.06565921775363588,
            -0.04401705992612351,
            1.8082861478174255,
            2.2570265727207373,
            2.3042385684489024,
            2.9519006870380826,
            3.0213252275929503,
            3.1843829731457403,
            3.5059052057600937,
            3.881432917970026,
            4.256372915955686,
            4.422254430204277,
            5.01714339322598,
            6.659506347601881,
            7.309901758043113,
            7.571852460164405,
            7.675223439277137,
            8.144784765344973,
            8.543017100404182,
            8.75420209385801,
            9.535190106518375,
            9.928348590433021,
            10.0774087752319,
            10.579805682819952,
            11.190580515059272,
            11.285269333252275,
            11.825073541959751,
            12.736867361829004,
            13.234766309718022,
            13.331679455377236,
            13.652959907877836,
            14.223523787465941,
            14.56547643793214,
            15.074218319981998,
            15.744395075126727,
            15.8214067631447,
            16.11145737087393,
            17.231345942692357,
            17.958389162240362,
            20.516275176437404,
            22.01597307890779,
            22.259207982276383,
            22.330450590582796,
            27.613108978606544,
            28.084351425204943,
            28.608023953829832,
            28.785803377319144,
            29.91486328681946,
            30.573805591691503,
            30.99546208255013,
            31.04901226141394,
            31.99003231640417,
            32.19672865163233
        ]
    },
    "born_effective_charge": {
        "avg_abs_trace": 1.8251624074074075,
        "tensors": [
            [
                [
                    1.26466,
                    0.02678,
                    -0.02458
                ],
                [
                    0.01353,
                    1.23569,
                    0.03472
                ],
                [
                    0.00182,
                    0.01331,
                    1.13593
                ]
            ],
            [
                [
                    1.26466,
                    -0.02681,
                    -0.02458
                ],
                [
                    -0.01353,
                    1.23569,
                    -0.03472
                ],
                [
                    0.00181,
                    -0.01331,
                    1.13591
                ]
            ],
            [
                [
                    1.10994,
                    0.07714,
                    0.08007
                ],
                [
                    -0.02421,
                    0.95419,
                    -0.02735
                ],
                [
                    0.02023,
                    -0.03765,
                    0.96811
                ]
            ],
            [
                [
                    1.10994,
                    -0.07717,
                    0.08009
                ],
                [
                    0.02421,
                    0.95419,
                    0.02735
                ],
                [
                    0.02023,
                    0.03765,
                    0.96811
                ]
            ],
            [
                [
                    2.82629,
                    0.24701,
                    -0.17939
                ],
                [
                    -0.16966,
                    3.17536,
                    -0.08266
                ],
                [
                    0.03808,
                    0.0308,
                    3.02499
                ]
            ],
            [
                [
                    2.62194,
                    -0.06589,
                    0.09169
                ],
                [
                    0.04894,
                    3.12707,
                    0.18664
                ],
                [
                    -0.16142,
                    -0.33181,
                    3.1956
                ]
            ],
            [
                [
                    2.62193,
                    0.06586,
                    0.09169
                ],
                [
                    -0.04894,
                    3.12707,
                    -0.18664
                ],
                [
                    -0.16143,
                    0.33181,
                    3.19559
                ]
            ],
            [
                [
                    2.82619,
                    -0.24702,
                    -0.17939
                ],
                [
                    0.16966,
                    3.17536,
                    0.08266
                ],
                [
                    0.03805,
                    -0.0308,
                    3.02498
                ]
            ],
            [
                [
                    -1.8607,
                    -0.17827,
                    0.1039
                ],
                [
                    -0.10538,
                    -1.46957,
                    0.12025
                ],
                [
                    0.12411,
                    0.12863,
                    -1.34906
                ]
            ],
            [
                [
                    -1.78015,
                    0.1141,
                    -0.21719
                ],
                [
                    0.04581,
                    -1.37289,
                    -0.0073
                ],
                [
                    -0.17169,
                    0.05609,
                    -1.52173
                ]
            ],
            [
                [
                    -1.58031,
                    0.38446,
                    -0.13111
                ],
                [
                    0.52242,
                    -2.25996,
                    0.49179
                ],
                [
                    -0.2629,
                    0.55809,
                    -1.2667
                ]
            ],
            [
                [
                    -1.08421,
                    0.21503,
                    -0.21288
                ],
                [
                    0.30808,
                    -2.26906,
                    0.70434
                ],
                [
                    -0.24343,
                    0.70615,
                    -1.74223
                ]
            ],
            [
                [
                    -1.51759,
                    0.15041,
                    0.48954
                ],
                [
                    0.11641,
                    -1.12083,
                    -0.14524
                ],
                [
                    0.65507,
                    -0.20958,
                    -2.44478
                ]
            ],
            [
                [
                    -1.51768,
                    -0.15038,
                    0.48936
                ],
                [
                    -0.11641,
                    -1.12083,
                    0.14524
                ],
                [
                    0.65517,
                    0.20957,
                    -2.44486
                ]
            ],
            [
                [
                    -1.58023,
                    -0.38454,
                    -0.13106
                ],
                [
                    -0.52242,
                    -2.25996,
                    -0.49179
                ],
                [
                    -0.26288,
                    -0.55809,
                    -1.26677
                ]
            ],
            [
                [
                    -1.08423,
                    -0.21491,
                    -0.21316
                ],
                [
                    -0.30808,
                    -2.26906,
                    -0.70434
                ],
                [
                    -0.24336,
                    -0.70613,
                    -1.74234
                ]
            ],
            [
                [
                    -1.77993,
                    -0.11416,
                    -0.21705
                ],
                [
                    -0.04581,
                    -1.37289,
                    0.0073
                ],
                [
                    -0.17156,
                    -0.05603,
                    -1.52167
                ]
            ],
            [
                [
                    -1.8605,
                    0.17836,
                    0.10405
                ],
                [
                    0.10538,
                    -1.46957,
                    -0.12025
                ],
                [
                    0.1241,
                    -0.12872,
                    -1.34909
                ]
            ]
        ]
    },
    "band_gap": 4.7303,
    "is_direct": false,
    "formula": "KLiSi2O5"
}