{
    "mp_id": "mp-550622",
    "nelements": 3,
    "nsites": 9,
    "elements": [
        "Cd",
        "O",
        "V"
    ],
    "structure": {
        "@module": "pymatgen.core.structure",
        "@class": "Structure",
        "charge": null,
        "lattice": {
            "matrix": [
                [
                    4.99512643,
                    -1.80640357,
                    0.00448576
                ],
                [
                    4.99512643,
                    1.80640357,
                    0.00448576
                ],
                [
                    -1.50500387,
                    0.0,
                    6.94504169
                ]
            ],
            "a": 5.311723075559952,
            "b": 5.311723075559952,
            "c": 7.106239562845671,
            "alpha": 101.43977105562445,
            "beta": 101.43977105562445,
            "gamma": 39.76333086794664,
            "volume": 125.35758818469662
        },
        "sites": [
            {
                "species": [
                    {
                        "element": "V",
                        "occu": 1
                    }
                ],
                "abc": [
                    0.2395694,
                    0.2395694,
                    0.67441568
                ],
                "xyz": [
                    1.3783606751298023,
                    0.0,
                    4.685994315653187
                ],
                "label": "V",
                "properties": {}
            },
            {
                "species": [
                    {
                        "element": "V",
                        "occu": 1
                    }
                ],
                "abc": [
                    0.7604306,
                    0.7604306,
                    0.32558432
                ],
                "xyz": [
                    7.106888314870197,
                    0.0,
                    2.2680188943468127
                ],
                "label": "V",
                "properties": {}
            },
            {
                "species": [
                    {
                        "element": "Cd",
                        "occu": 1
                    }
                ],
                "abc": [
                    0.0,
                    0.0,
                    0.0
                ],
                "xyz": [
                    0.0,
                    0.0,
                    0.0
                ],
                "label": "Cd",
                "properties": {}
            },
            {
                "species": [
                    {
                        "element": "O",
                        "occu": 1
                    }
                ],
                "abc": [
                    0.09042858,
                    0.09042858,
                    0.73856922
                ],
                "xyz": [
                    -0.20814515439214265,
                    0.0,
                    5.130205305664824
                ],
                "label": "O",
                "properties": {}
            },
            {
                "species": [
                    {
                        "element": "O",
                        "occu": 1
                    }
                ],
                "abc": [
                    0.24159239,
                    0.24159239,
                    0.39368811
                ],
                "xyz": [
                    1.8210669360287497,
                    0.0,
                    2.7363477877660385
                ],
                "label": "O",
                "properties": {}
            },
            {
                "species": [
                    {
                        "element": "O",
                        "occu": 1
                    }
                ],
                "abc": [
                    0.75840761,
                    0.75840761,
                    0.60631189
                ],
                "xyz": [
                    6.664182053971251,
                    0.0,
                    4.217665422233962
                ],
                "label": "O",
                "properties": {}
            },
            {
                "species": [
                    {
                        "element": "O",
                        "occu": 1
                    }
                ],
                "abc": [
                    0.36622296,
                    0.36622296,
                    0.87686043
                ],
                "xyz": [
                    2.3389816329378013,
                    0.0,
                    6.093117819271426
                ],
                "label": "O",
                "properties": {}
            },
            {
                "species": [
                    {
                        "element": "O",
                        "occu": 1
                    }
                ],
                "abc": [
                    0.63377704,
                    0.63377704,
                    0.12313957
                ],
                "xyz": [
                    6.146267357062198,
                    0.0,
                    0.8608953907285741
                ],
                "label": "O",
                "properties": {}
            },
            {
                "species": [
                    {
                        "element": "O",
                        "occu": 1
                    }
                ],
                "abc": [
                    0.90957142,
                    0.90957142,
                    0.26143078
                ],
                "xyz": [
                    8.693394144392142,
                    0.0,
                    1.8238079043351765
                ],
                "label": "O",
                "properties": {}
            }
        ]
    },
    "spacegroup": {
        "source": "spglib",
        "symbol": "C2/m",
        "number": 12,
        "point_group": "2/m",
        "crystal_system": "monoclinic",
        "hall": "-C 2y"
    },
    "dielectric": {
        "epsilon_ionic": [
            [
                5.02038384,
                3e-08,
                1.23366788
            ],
            [
                3e-08,
                10.65794325,
                -1e-08
            ],
            [
                1.23366788,
                -1e-08,
                5.38714199
            ]
        ],
        "epsilon_ionic_avg": 7.0218230266666675,
        "epsilon_ionic_eig": [
            3.956540271166289,
            6.450985558833709,
            10.657943250000006
        ],
        "epsilon_electronic": [
            [
                4.29542362,
                0.0,
                0.1320201
            ],
            [
                0.0,
                5.28266536,
                0.0
            ],
            [
                0.13201379,
                0.0,
                4.65363284
            ]
        ],
        "epsilon_electronic_avg": 4.743907273333334,
        "epsilon_electronic_eig": [
            4.25202669049874,
            4.697029769501261,
            5.28266536
        ]
    },
    "phonon": {
        "lowest_freq": -0.0820812216787481,
        "frequency": [
            -0.0820812216787481,
            -0.03517413754274597,
            -0.013313712691608432,
            3.2095090839394813,
            3.2417944324295886,
            3.8708827938495975,
            4.134202295845696,
            4.637509577544468,
            5.009221177775845,
            6.5702814296945915,
            7.374457067173974,
            7.424317320264078,
            7.546300230229927,
            8.768506343642088,
            9.07548230797929,
            9.810854538500239,
            9.9678063134728,
            11.289487459723286,
            12.192178600000622,
            15.708161446357977,
            15.80909592998559,
            17.00269638814809,
            22.12833539809212,
            23.631883734909376,
            24.74157426571338,
            27.686124949216715,
            28.316700506544223
        ]
    },
    "born_effective_charge": {
        "avg_abs_trace": 2.6537844444444447,
        "tensors": [
            [
                [
                    3.46581,
                    0.0,
                    0.70861
                ],
                [
                    -0.00032,
                    6.10506,
                    0.00154
                ],
                [
                    -0.10416,
                    0.0,
                    4.00672
                ]
            ],
            [
                [
                    3.46562,
                    0.0,
                    0.70825
                ],
                [
                    0.00032,
                    6.10506,
                    -0.00154
                ],
                [
                    -0.10415,
                    0.0,
                    4.0068
                ]
            ],
            [
                [
                    3.19279,
                    0.0,
                    -0.6018
                ],
                [
                    0.0,
                    2.45617,
                    0.0
                ],
                [
                    0.54254,
                    0.0,
                    3.02206
                ]
            ],
            [
                [
                    -2.75869,
                    0.0,
                    0.87987
                ],
                [
                    8e-05,
                    -0.73393,
                    -0.00013
                ],
                [
                    0.89957,
                    0.0,
                    -0.94762
                ]
            ],
            [
                [
                    -0.44189,
                    0.0,
                    0.13411
                ],
                [
                    -0.00062,
                    -5.1502,
                    0.00071
                ],
                [
                    0.48729,
                    0.0,
                    -2.08372
                ]
            ],
            [
                [
                    -0.44185,
                    0.0,
                    0.13417
                ],
                [
                    0.00062,
                    -5.1502,
                    -0.00071
                ],
                [
                    0.4873,
                    0.0,
                    -2.08363
                ]
            ],
            [
                [
                    -1.8618,
                    0.0,
                    -1.42196
                ],
                [
                    -0.00039,
                    -1.44902,
                    -0.0005
                ],
                [
                    -1.55401,
                    0.0,
                    -2.48667
                ]
            ],
            [
                [
                    -1.86171,
                    0.0,
                    -1.42155
                ],
                [
                    0.00039,
                    -1.44902,
                    0.0005
                ],
                [
                    -1.55431,
                    0.0,
                    -2.48668
                ]
            ],
            [
                [
                    -2.75827,
                    0.0,
                    0.88029
                ],
                [
                    -8e-05,
                    -0.73393,
                    0.00013
                ],
                [
                    0.89993,
                    0.0,
                    -0.94726
                ]
            ]
        ]
    },
    "band_gap": 2.6289,
    "is_direct": true,
    "formula": "V2CdO6"
}