{
    "mp_id": "mp-546011",
    "nelements": 4,
    "nsites": 8,
    "elements": [
        "As",
        "O",
        "Y",
        "Zn"
    ],
    "structure": {
        "@module": "pymatgen.core.structure",
        "@class": "Structure",
        "charge": null,
        "lattice": {
            "matrix": [
                [
                    3.90252776,
                    0.0,
                    0.0
                ],
                [
                    0.0,
                    3.90252776,
                    0.0
                ],
                [
                    0.0,
                    0.0,
                    8.73819258
                ]
            ],
            "a": 3.90252776,
            "b": 3.90252776,
            "c": 8.73819258,
            "alpha": 90.0,
            "beta": 90.0,
            "gamma": 90.0,
            "volume": 133.0802517937715
        },
        "sites": [
            {
                "species": [
                    {
                        "element": "Y",
                        "occu": 1
                    }
                ],
                "abc": [
                    0.0,
                    0.5,
                    0.87628281
                ],
                "xyz": [
                    0.0,
                    1.95126388,
                    7.6571279483235495
                ],
                "label": "Y",
                "properties": {}
            },
            {
                "species": [
                    {
                        "element": "Y",
                        "occu": 1
                    }
                ],
                "abc": [
                    0.5,
                    0.0,
                    0.12371719
                ],
                "xyz": [
                    1.95126388,
                    0.0,
                    1.0810646316764503
                ],
                "label": "Y",
                "properties": {}
            },
            {
                "species": [
                    {
                        "element": "Zn",
                        "occu": 1
                    }
                ],
                "abc": [
                    0.0,
                    0.0,
                    0.5
                ],
                "xyz": [
                    0.0,
                    0.0,
                    4.36909629
                ],
                "label": "Zn",
                "properties": {}
            },
            {
                "species": [
                    {
                        "element": "Zn",
                        "occu": 1
                    }
                ],
                "abc": [
                    0.5,
                    0.5,
                    0.5
                ],
                "xyz": [
                    1.95126388,
                    1.95126388,
                    4.36909629
                ],
                "label": "Zn",
                "properties": {}
            },
            {
                "species": [
                    {
                        "element": "As",
                        "occu": 1
                    }
                ],
                "abc": [
                    0.0,
                    0.5,
                    0.31813269
                ],
                "xyz": [
                    0.0,
                    1.95126388,
                    2.7799047112134403
                ],
                "label": "As",
                "properties": {}
            },
            {
                "species": [
                    {
                        "element": "As",
                        "occu": 1
                    }
                ],
                "abc": [
                    0.5,
                    0.0,
                    0.68186731
                ],
                "xyz": [
                    1.95126388,
                    0.0,
                    5.9582878687865595
                ],
                "label": "As",
                "properties": {}
            },
            {
                "species": [
                    {
                        "element": "O",
                        "occu": 1
                    }
                ],
                "abc": [
                    0.0,
                    0.0,
                    0.0
                ],
                "xyz": [
                    0.0,
                    0.0,
                    0.0
                ],
                "label": "O",
                "properties": {}
            },
            {
                "species": [
                    {
                        "element": "O",
                        "occu": 1
                    }
                ],
                "abc": [
                    0.5,
                    0.5,
                    0.0
                ],
                "xyz": [
                    1.95126388,
                    1.95126388,
                    0.0
                ],
                "label": "O",
                "properties": {}
            }
        ]
    },
    "spacegroup": {
        "source": "spglib",
        "symbol": "P4/nmm",
        "number": 129,
        "point_group": "4/mmm",
        "crystal_system": "tetragonal",
        "hall": "P 4ab 2ab -1ab"
    },
    "dielectric": {
        "epsilon_ionic": [
            [
                16.12585875,
                2.2e-07,
                3e-08
            ],
            [
                2.2e-07,
                16.12587129,
                3e-08
            ],
            [
                3e-08,
                3e-08,
                10.69054964
            ]
        ],
        "epsilon_ionic_avg": 14.314093226666664,
        "epsilon_ionic_eig": [
            16.125858746141528,
            16.125871293858463,
            10.69054964
        ],
        "epsilon_electronic": [
            [
                10.67071413,
                0.0,
                0.0
            ],
            [
                0.0,
                10.67071413,
                0.0
            ],
            [
                0.0,
                0.0,
                8.02430298
            ]
        ],
        "epsilon_electronic_avg": 9.788577080000001,
        "epsilon_electronic_eig": [
            10.67071413,
            10.67071413,
            8.02430298
        ]
    },
    "phonon": {
        "lowest_freq": -0.15520500417727728,
        "frequency": [
            -0.15520500417727728,
            -0.10782380790273619,
            -0.10782380790273619,
            1.6725833387130524,
            1.6725833387130524,
            3.099535145538949,
            3.099535145538949,
            3.1603498709769924,
            4.243923967483138,
            4.70281036496681,
            4.70281036496681,
            4.77629751033826,
            4.77629751033826,
            5.679344951375354,
            5.679344951375354,
            5.778178096600861,
            6.8786835958168275,
            6.988389035665983,
            10.214144577159587,
            10.993633654592447,
            10.993633654592447,
            13.286826934769579,
            15.27048474919698,
            15.27048474919698
        ]
    },
    "born_effective_charge": {
        "avg_abs_trace": 3.0783433333333337,
        "tensors": [
            [
                [
                    4.5676,
                    0.0,
                    -0.00036
                ],
                [
                    0.0,
                    4.56761,
                    -0.00036
                ],
                [
                    0.0,
                    0.0,
                    4.85888
                ]
            ],
            [
                [
                    4.5676,
                    0.0,
                    0.00036
                ],
                [
                    0.0,
                    4.56761,
                    0.00036
                ],
                [
                    0.0,
                    0.0,
                    4.85904
                ]
            ],
            [
                [
                    1.83544,
                    0.0,
                    0.00029
                ],
                [
                    0.0,
                    1.83544,
                    -0.00029
                ],
                [
                    0.0,
                    0.0,
                    0.80501
                ]
            ],
            [
                [
                    1.83544,
                    0.0,
                    -0.00029
                ],
                [
                    0.0,
                    1.83544,
                    0.00029
                ],
                [
                    0.0,
                    0.0,
                    0.80501
                ]
            ],
            [
                [
                    -3.27736,
                    0.0,
                    0.00131
                ],
                [
                    0.0,
                    -3.27736,
                    0.00131
                ],
                [
                    0.0,
                    0.0,
                    -1.83053
                ]
            ],
            [
                [
                    -3.27736,
                    0.0,
                    -0.00131
                ],
                [
                    0.0,
                    -3.27736,
                    -0.00131
                ],
                [
                    0.0,
                    0.0,
                    -1.83069
                ]
            ],
            [
                [
                    -3.12569,
                    0.0,
                    -0.00072
                ],
                [
                    0.0,
                    -3.12569,
                    0.00072
                ],
                [
                    0.0,
                    0.0,
                    -3.83335
                ]
            ],
            [
                [
                    -3.12569,
                    0.0,
                    0.00072
                ],
                [
                    0.0,
                    -3.12569,
                    -0.00072
                ],
                [
                    0.0,
                    0.0,
                    -3.83335
                ]
            ]
        ]
    },
    "band_gap": 1.1058000000000003,
    "is_direct": false,
    "formula": "YZnAsO"
}