{
    "mp_id": "mp-510264",
    "nelements": 4,
    "nsites": 24,
    "elements": [
        "K",
        "O",
        "W",
        "Y"
    ],
    "structure": {
        "@module": "pymatgen.core.structure",
        "@class": "Structure",
        "charge": null,
        "lattice": {
            "matrix": [
                [
                    5.34943169,
                    -5.21212715,
                    0.00067474
                ],
                [
                    5.34943169,
                    5.21212715,
                    0.00067474
                ],
                [
                    -4.81003713,
                    0.0,
                    5.63565006
                ]
            ],
            "a": 7.4687809774432035,
            "b": 7.4687809774432035,
            "c": 7.409251567517238,
            "alpha": 117.7043238852862,
            "beta": 117.7043238852862,
            "gamma": 88.51034681151722,
            "volume": 314.2992995454726
        },
        "sites": [
            {
                "species": [
                    {
                        "element": "K",
                        "occu": 1
                    }
                ],
                "abc": [
                    0.70489453,
                    0.29510547,
                    0.25
                ],
                "xyz": [
                    4.1469224075,
                    -2.1358726853989793,
                    1.409587255
                ],
                "label": "K",
                "properties": {}
            },
            {
                "species": [
                    {
                        "element": "K",
                        "occu": 1
                    }
                ],
                "abc": [
                    0.29510547,
                    0.70489453,
                    0.75
                ],
                "xyz": [
                    1.7419038425000002,
                    2.1358726853989793,
                    4.227412285
                ],
                "label": "K",
                "properties": {}
            },
            {
                "species": [
                    {
                        "element": "Y",
                        "occu": 1
                    }
                ],
                "abc": [
                    0.27328041,
                    0.72671959,
                    0.25
                ],
                "xyz": [
                    4.146922407499999,
                    2.3633826609517365,
                    1.409587255
                ],
                "label": "Y",
                "properties": {}
            },
            {
                "species": [
                    {
                        "element": "Y",
                        "occu": 1
                    }
                ],
                "abc": [
                    0.72671959,
                    0.27328041,
                    0.75
                ],
                "xyz": [
                    1.7419038424999993,
                    -2.3633826609517365,
                    4.227412285
                ],
                "label": "Y",
                "properties": {}
            },
            {
                "species": [
                    {
                        "element": "W",
                        "occu": 1
                    }
                ],
                "abc": [
                    0.19302247,
                    0.19958125,
                    0.72573589
                ],
                "xyz": [
                    -1.3906097960937092,
                    0.03418519530887698,
                    4.0902584174566865
                ],
                "label": "W",
                "properties": {}
            },
            {
                "species": [
                    {
                        "element": "W",
                        "occu": 1
                    }
                ],
                "abc": [
                    0.80041875,
                    0.80697753,
                    0.77426411
                ],
                "xyz": [
                    4.874417481093709,
                    0.034185195308877425,
                    4.364566152543313
                ],
                "label": "W",
                "properties": {}
            },
            {
                "species": [
                    {
                        "element": "W",
                        "occu": 1
                    }
                ],
                "abc": [
                    0.80697753,
                    0.80041875,
                    0.27426411
                ],
                "xyz": [
                    7.279436046093709,
                    -0.034185195308877425,
                    1.5467411225433136
                ],
                "label": "W",
                "properties": {}
            },
            {
                "species": [
                    {
                        "element": "W",
                        "occu": 1
                    }
                ],
                "abc": [
                    0.19958125,
                    0.19302247,
                    0.22573589
                ],
                "xyz": [
                    1.0144087689062913,
                    -0.03418519530887698,
                    1.2724333874566862
                ],
                "label": "W",
                "properties": {}
            },
            {
                "species": [
                    {
                        "element": "O",
                        "occu": 1
                    }
                ],
                "abc": [
                    0.12130459,
                    0.25793418,
                    0.44486599
                ],
                "xyz": [
                    -0.11111003545958731,
                    0.7121307955323686,
                    2.5073649308031287
                ],
                "label": "O",
                "properties": {}
            },
            {
                "species": [
                    {
                        "element": "O",
                        "occu": 1
                    }
                ],
                "abc": [
                    0.74206582,
                    0.87869541,
                    0.05513401
                ],
                "xyz": [
                    8.404954850459587,
                    0.7121307955323681,
                    0.31180957919687075
                ],
                "label": "O",
                "properties": {}
            },
            {
                "species": [
                    {
                        "element": "O",
                        "occu": 1
                    }
                ],
                "abc": [
                    0.87869541,
                    0.74206582,
                    0.55513401
                ],
                "xyz": [
                    5.9999362854595875,
                    -0.7121307955323681,
                    3.1296346091968705
                ],
                "label": "O",
                "properties": {}
            },
            {
                "species": [
                    {
                        "element": "O",
                        "occu": 1
                    }
                ],
                "abc": [
                    0.25793418,
                    0.12130459,
                    0.94486599
                ],
                "xyz": [
                    -2.5161286004595875,
                    -0.7121307955323686,
                    5.3251899608031295
                ],
                "label": "O",
                "properties": {}
            },
            {
                "species": [
                    {
                        "element": "O",
                        "occu": 1
                    }
                ],
                "abc": [
                    0.56016535,
                    0.87477037,
                    0.62357803
                ],
                "xyz": [
                    4.676657135928712,
                    1.6397613662682935,
                    3.5152357707118944
                ],
                "label": "O",
                "properties": {}
            },
            {
                "species": [
                    {
                        "element": "O",
                        "occu": 1
                    }
                ],
                "abc": [
                    0.12522963,
                    0.43983465,
                    0.87642197
                ],
                "xyz": [
                    -1.1928494509287129,
                    1.639761366268293,
                    4.939588799288106
                ],
                "label": "O",
                "properties": {}
            },
            {
                "species": [
                    {
                        "element": "O",
                        "occu": 1
                    }
                ],
                "abc": [
                    0.43983465,
                    0.12522963,
                    0.37642197
                ],
                "xyz": [
                    1.2121691140712876,
                    -1.639761366268293,
                    2.1217637692881053
                ],
                "label": "O",
                "properties": {}
            },
            {
                "species": [
                    {
                        "element": "O",
                        "occu": 1
                    }
                ],
                "abc": [
                    0.87477037,
                    0.56016535,
                    0.12357803
                ],
                "xyz": [
                    7.081675700928713,
                    -1.6397613662682935,
                    0.6974107407118947
                ],
                "label": "O",
                "properties": {}
            },
            {
                "species": [
                    {
                        "element": "O",
                        "occu": 1
                    }
                ],
                "abc": [
                    0.54208894,
                    0.71544295,
                    0.18772589
                ],
                "xyz": [
                    5.824112442389299,
                    0.9035431420823716,
                    1.058805930309512
                ],
                "label": "O",
                "properties": {}
            },
            {
                "species": [
                    {
                        "element": "O",
                        "occu": 1
                    }
                ],
                "abc": [
                    0.28455705,
                    0.45791106,
                    0.31227411
                ],
                "xyz": [
                    2.469732372610701,
                    0.9035431420823716,
                    1.7603685796904878
                ],
                "label": "O",
                "properties": {}
            },
            {
                "species": [
                    {
                        "element": "O",
                        "occu": 1
                    }
                ],
                "abc": [
                    0.45791106,
                    0.28455705,
                    0.81227411
                ],
                "xyz": [
                    0.06471380761070078,
                    -0.9035431420823716,
                    4.578193609690488
                ],
                "label": "O",
                "properties": {}
            },
            {
                "species": [
                    {
                        "element": "O",
                        "occu": 1
                    }
                ],
                "abc": [
                    0.71544295,
                    0.54208894,
                    0.68772589
                ],
                "xyz": [
                    3.419093877389299,
                    -0.9035431420823716,
                    3.8766309603095115
                ],
                "label": "O",
                "properties": {}
            },
            {
                "species": [
                    {
                        "element": "O",
                        "occu": 1
                    }
                ],
                "abc": [
                    0.90960033,
                    0.13029129,
                    0.9686097
                ],
                "xyz": [
                    0.9037805647152757,
                    -4.061857805624435,
                    5.459446970393261
                ],
                "label": "O",
                "properties": {}
            },
            {
                "species": [
                    {
                        "element": "O",
                        "occu": 1
                    }
                ],
                "abc": [
                    0.86970871,
                    0.09039967,
                    0.5313903
                ],
                "xyz": [
                    2.5800271202847234,
                    -4.061857805624435,
                    2.9953775996067393
                ],
                "label": "O",
                "properties": {}
            },
            {
                "species": [
                    {
                        "element": "O",
                        "occu": 1
                    }
                ],
                "abc": [
                    0.09039967,
                    0.86970871,
                    0.0313903
                ],
                "xyz": [
                    4.985045685284724,
                    4.061857805624435,
                    0.1775525696067392
                ],
                "label": "O",
                "properties": {}
            },
            {
                "species": [
                    {
                        "element": "O",
                        "occu": 1
                    }
                ],
                "abc": [
                    0.13029129,
                    0.90960033,
                    0.4686097
                ],
                "xyz": [
                    3.308799129715276,
                    4.061857805624435,
                    2.6416219403932604
                ],
                "label": "O",
                "properties": {}
            }
        ]
    },
    "spacegroup": {
        "source": "spglib",
        "symbol": "C2/c",
        "number": 15,
        "point_group": "2/m",
        "crystal_system": "monoclinic",
        "hall": "-C 2yc"
    },
    "dielectric": {
        "epsilon_ionic": [
            [
                14.76848388,
                2e-08,
                -3.6021607
            ],
            [
                2e-08,
                8.72308415,
                -1e-08
            ],
            [
                -3.6021607,
                -1e-08,
                11.8420659
            ]
        ],
        "epsilon_ionic_avg": 11.777877976666664,
        "epsilon_ionic_eig": [
            17.193274665854062,
            9.417275114145927,
            8.72308415
        ],
        "epsilon_electronic": [
            [
                4.67419941,
                0.0,
                -0.24306946
            ],
            [
                0.0,
                4.20573721,
                0.0
            ],
            [
                -0.24307309,
                0.0,
                4.71558435
            ]
        ],
        "epsilon_electronic_avg": 4.531840323333333,
        "epsilon_electronic_eig": [
            4.450941427978422,
            4.938842332021578,
            4.20573721
        ]
    },
    "phonon": {
        "lowest_freq": -0.03672843944314388,
        "frequency": [
            -0.03672843944314388,
            -0.020613906151300654,
            -0.012370672877104647,
            2.10374270492482,
            2.295762156914396,
            3.035721539064456,
            3.204174942616778,
            3.2271719975585063,
            3.3100979530851475,
            3.337616794629194,
            3.3558695399625877,
            3.4588988110908288,
            3.638899529311599,
            3.885622410471624,
            4.215729419836937,
            4.245228673361862,
            4.548061124350944,
            4.658810822969875,
            4.810066660509164,
            4.8413223238528635,
            5.195429297881117,
            5.3009859764271345,
            5.383158212423143,
            6.1575922348948735,
            6.195017087226711,
            6.368094113899431,
            6.444713342653949,
            6.571585753302402,
            6.827371185542315,
            7.237028503729655,
            7.307113004376068,
            8.023148046787655,
            8.317597904251839,
            8.343403027326989,
            8.734201770237584,
            8.846713921117983,
            8.86468205550728,
            9.105548608095622,
            9.238158633194791,
            9.635339327198402,
            9.713049730439108,
            9.942160878095835,
            10.107715137798229,
            10.500459069525645,
            11.356896644935453,
            11.535163990191222,
            11.559379976250373,
            11.779457880826039,
            12.21617053348611,
            12.909846001467619,
            13.008314589030494,
            13.021047171598804,
            13.646537965925484,
            13.865490674025525,
            15.233892956655211,
            15.345899722774767,
            17.456466608792997,
            17.668086901216757,
            19.182158831879477,
            19.30335105051811,
            19.40088513994889,
            19.57969721649519,
            21.375272903747014,
            21.380247676302478,
            21.790997549711193,
            22.010497199962405,
            22.415427523184484,
            23.65909458648514,
            24.442613782794258,
            25.657349856846476,
            25.850146000837153,
            26.355561896289185
        ]
    },
    "born_effective_charge": {
        "avg_abs_trace": 3.102262777777778,
        "tensors": [
            [
                [
                    1.14268,
                    -2e-05,
                    0.10131
                ],
                [
                    -0.0,
                    1.44766,
                    0.0
                ],
                [
                    0.07779,
                    3e-05,
                    1.1917
                ]
            ],
            [
                [
                    1.14268,
                    2e-05,
                    0.10131
                ],
                [
                    -0.0,
                    1.44769,
                    0.0
                ],
                [
                    0.07779,
                    -3e-05,
                    1.1917
                ]
            ],
            [
                [
                    4.4807,
                    5e-05,
                    -0.2014
                ],
                [
                    0.0,
                    5.51509,
                    0.0
                ],
                [
                    0.01017,
                    -0.00015,
                    4.31437
                ]
            ],
            [
                [
                    4.4807,
                    -5e-05,
                    -0.2014
                ],
                [
                    -0.0,
                    5.51494,
                    0.0
                ],
                [
                    0.01017,
                    0.00015,
                    4.31437
                ]
            ],
            [
                [
                    6.92803,
                    0.51547,
                    -0.70278
                ],
                [
                    -0.485,
                    5.01103,
                    0.50771
                ],
                [
                    -0.81698,
                    -0.09089,
                    6.93499
                ]
            ],
            [
                [
                    6.92806,
                    -0.5152,
                    -0.70331
                ],
                [
                    0.485,
                    5.01103,
                    -0.50771
                ],
                [
                    -0.81672,
                    0.09053,
                    6.93534
                ]
            ],
            [
                [
                    6.92806,
                    0.5152,
                    -0.70331
                ],
                [
                    -0.48492,
                    5.01113,
                    0.50798
                ],
                [
                    -0.81672,
                    -0.09053,
                    6.93534
                ]
            ],
            [
                [
                    6.92803,
                    -0.51547,
                    -0.70278
                ],
                [
                    0.48492,
                    5.01113,
                    -0.50798
                ],
                [
                    -0.81698,
                    0.09089,
                    6.93499
                ]
            ],
            [
                [
                    -2.79966,
                    0.49422,
                    2.09769
                ],
                [
                    0.18078,
                    -1.09038,
                    -0.18477
                ],
                [
                    1.94705,
                    -0.50673,
                    -3.2235
                ]
            ],
            [
                [
                    -2.79968,
                    -0.49431,
                    2.09839
                ],
                [
                    -0.18078,
                    -1.09038,
                    0.18477
                ],
                [
                    1.94708,
                    0.50722,
                    -3.22449
                ]
            ],
            [
                [
                    -2.79968,
                    0.49431,
                    2.09839
                ],
                [
                    0.18058,
                    -1.09035,
                    -0.18466
                ],
                [
                    1.94708,
                    -0.50722,
                    -3.22449
                ]
            ],
            [
                [
                    -2.79966,
                    -0.49422,
                    2.09769
                ],
                [
                    -0.18058,
                    -1.09035,
                    0.18466
                ],
                [
                    1.94705,
                    0.50673,
                    -3.2235
                ]
            ],
            [
                [
                    -1.32898,
                    0.44533,
                    -0.23384
                ],
                [
                    0.12906,
                    -2.9729,
                    1.27725
                ],
                [
                    -0.24911,
                    1.51274,
                    -2.32276
                ]
            ],
            [
                [
                    -1.32911,
                    -0.44548,
                    -0.234
                ],
                [
                    -0.12906,
                    -2.9729,
                    -1.27725
                ],
                [
                    -0.24923,
                    -1.51263,
                    -2.32279
                ]
            ],
            [
                [
                    -1.32911,
                    0.44548,
                    -0.234
                ],
                [
                    0.12901,
                    -2.97344,
                    1.27735
                ],
                [
                    -0.24923,
                    1.51263,
                    -2.32279
                ]
            ],
            [
                [
                    -1.32898,
                    -0.44533,
                    -0.23384
                ],
                [
                    -0.12901,
                    -2.97344,
                    -1.27735
                ],
                [
                    -0.24911,
                    -1.51274,
                    -2.32276
                ]
            ],
            [
                [
                    -3.46485,
                    1.68488,
                    -0.35981
                ],
                [
                    1.53286,
                    -1.94689,
                    0.31673
                ],
                [
                    -0.35308,
                    0.50097,
                    -1.28414
                ]
            ],
            [
                [
                    -3.46465,
                    -1.68493,
                    -0.36002
                ],
                [
                    -1.53286,
                    -1.94689,
                    -0.31673
                ],
                [
                    -0.35298,
                    -0.50094,
                    -1.28395
                ]
            ],
            [
                [
                    -3.46465,
                    1.68493,
                    -0.36002
                ],
                [
                    1.53309,
                    -1.94671,
                    0.31701
                ],
                [
                    -0.35298,
                    0.50094,
                    -1.28395
                ]
            ],
            [
                [
                    -3.46485,
                    -1.68488,
                    -0.35981
                ],
                [
                    -1.53309,
                    -1.94671,
                    -0.31701
                ],
                [
                    -0.35308,
                    -0.50097,
                    -1.28414
                ]
            ],
            [
                [
                    -2.14641,
                    -0.2897,
                    -0.75122
                ],
                [
                    -0.37818,
                    -2.4822,
                    0.75624
                ],
                [
                    -0.57191,
                    0.71862,
                    -2.85723
                ]
            ],
            [
                [
                    -2.14615,
                    0.28993,
                    -0.751
                ],
                [
                    0.37818,
                    -2.4822,
                    -0.75624
                ],
                [
                    -0.57208,
                    -0.71893,
                    -2.85754
                ]
            ],
            [
                [
                    -2.14615,
                    -0.28993,
                    -0.751
                ],
                [
                    -0.37786,
                    -2.48198,
                    0.75653
                ],
                [
                    -0.57208,
                    0.71893,
                    -2.85754
                ]
            ],
            [
                [
                    -2.14641,
                    0.2897,
                    -0.75122
                ],
                [
                    0.37786,
                    -2.48198,
                    -0.75653
                ],
                [
                    -0.57191,
                    -0.71862,
                    -2.85723
                ]
            ]
        ]
    },
    "band_gap": 3.4087,
    "is_direct": false,
    "formula": "KY(WO4)2"
}