{
    "mp_id": "mp-555495",
    "nelements": 4,
    "nsites": 24,
    "elements": [
        "B",
        "K",
        "O",
        "Y"
    ],
    "structure": {
        "@module": "pymatgen.core.structure",
        "@class": "Structure",
        "charge": null,
        "lattice": {
            "matrix": [
                [
                    6.82288996,
                    0.0,
                    0.0
                ],
                [
                    0.0,
                    9.35810432,
                    0.0
                ],
                [
                    0.0,
                    0.0,
                    5.54076415
                ]
            ],
            "a": 6.82288996,
            "b": 9.35810432,
            "c": 5.54076415,
            "alpha": 90.0,
            "beta": 90.0,
            "gamma": 90.0,
            "volume": 353.77400114779465
        },
        "sites": [
            {
                "species": [
                    {
                        "element": "K",
                        "occu": 1
                    }
                ],
                "abc": [
                    0.22516826,
                    0.33256684,
                    0.0
                ],
                "xyz": [
                    1.5362982604646698,
                    3.1121951820927487,
                    0.0
                ],
                "label": "K",
                "properties": {}
            },
            {
                "species": [
                    {
                        "element": "K",
                        "occu": 1
                    }
                ],
                "abc": [
                    0.77483174,
                    0.66743316,
                    0.0
                ],
                "xyz": [
                    5.286591699535331,
                    6.245909137907251,
                    0.0
                ],
                "label": "K",
                "properties": {}
            },
            {
                "species": [
                    {
                        "element": "K",
                        "occu": 1
                    }
                ],
                "abc": [
                    0.72516826,
                    0.16743316,
                    0.5
                ],
                "xyz": [
                    4.9477432404646695,
                    1.5668569779072512,
                    2.770382075
                ],
                "label": "K",
                "properties": {}
            },
            {
                "species": [
                    {
                        "element": "K",
                        "occu": 1
                    }
                ],
                "abc": [
                    0.5,
                    0.5,
                    0.5
                ],
                "xyz": [
                    3.41144498,
                    4.67905216,
                    2.770382075
                ],
                "label": "K",
                "properties": {}
            },
            {
                "species": [
                    {
                        "element": "K",
                        "occu": 1
                    }
                ],
                "abc": [
                    0.27483174,
                    0.83256684,
                    0.5
                ],
                "xyz": [
                    1.8751467195353304,
                    7.79124734209275,
                    2.770382075
                ],
                "label": "K",
                "properties": {}
            },
            {
                "species": [
                    {
                        "element": "K",
                        "occu": 1
                    }
                ],
                "abc": [
                    0.0,
                    0.0,
                    0.0
                ],
                "xyz": [
                    0.0,
                    0.0,
                    0.0
                ],
                "label": "K",
                "properties": {}
            },
            {
                "species": [
                    {
                        "element": "Y",
                        "occu": 1
                    }
                ],
                "abc": [
                    0.5,
                    0.0,
                    0.0
                ],
                "xyz": [
                    3.41144498,
                    0.0,
                    0.0
                ],
                "label": "Y",
                "properties": {}
            },
            {
                "species": [
                    {
                        "element": "Y",
                        "occu": 1
                    }
                ],
                "abc": [
                    0.0,
                    0.5,
                    0.5
                ],
                "xyz": [
                    0.0,
                    4.67905216,
                    2.770382075
                ],
                "label": "Y",
                "properties": {}
            },
            {
                "species": [
                    {
                        "element": "B",
                        "occu": 1
                    }
                ],
                "abc": [
                    0.76458738,
                    0.33339778,
                    0.0
                ],
                "xyz": [
                    5.216695558544705,
                    3.1199712052964097,
                    0.0
                ],
                "label": "B",
                "properties": {}
            },
            {
                "species": [
                    {
                        "element": "B",
                        "occu": 1
                    }
                ],
                "abc": [
                    0.23541262,
                    0.66660222,
                    0.0
                ],
                "xyz": [
                    1.6061944014552951,
                    6.238133114703591,
                    0.0
                ],
                "label": "B",
                "properties": {}
            },
            {
                "species": [
                    {
                        "element": "B",
                        "occu": 1
                    }
                ],
                "abc": [
                    0.73541262,
                    0.83339778,
                    0.5
                ],
                "xyz": [
                    5.017639381455295,
                    7.79902336529641,
                    2.770382075
                ],
                "label": "B",
                "properties": {}
            },
            {
                "species": [
                    {
                        "element": "B",
                        "occu": 1
                    }
                ],
                "abc": [
                    0.26458738,
                    0.16660222,
                    0.5
                ],
                "xyz": [
                    1.8052505785447048,
                    1.5590809547035904,
                    2.770382075
                ],
                "label": "B",
                "properties": {}
            },
            {
                "species": [
                    {
                        "element": "O",
                        "occu": 1
                    }
                ],
                "abc": [
                    0.30272266,
                    0.09733359,
                    0.71709315
                ],
                "xyz": [
                    2.0654433975784934,
                    0.9108578890601089,
                    3.9732440177305723
                ],
                "label": "O",
                "properties": {}
            },
            {
                "species": [
                    {
                        "element": "O",
                        "occu": 1
                    }
                ],
                "abc": [
                    0.19727734,
                    0.59733359,
                    0.21709315
                ],
                "xyz": [
                    1.3460015824215064,
                    5.589910049060109,
                    1.2028619427305727
                ],
                "label": "O",
                "properties": {}
            },
            {
                "species": [
                    {
                        "element": "O",
                        "occu": 1
                    }
                ],
                "abc": [
                    0.19141707,
                    0.3052695,
                    0.5
                ],
                "xyz": [
                    1.3060176050756171,
                    2.8567438267142404,
                    2.770382075
                ],
                "label": "O",
                "properties": {}
            },
            {
                "species": [
                    {
                        "element": "O",
                        "occu": 1
                    }
                ],
                "abc": [
                    0.69727734,
                    0.90266641,
                    0.71709315
                ],
                "xyz": [
                    4.7574465624215065,
                    8.447246430939892,
                    3.9732440177305723
                ],
                "label": "O",
                "properties": {}
            },
            {
                "species": [
                    {
                        "element": "O",
                        "occu": 1
                    }
                ],
                "abc": [
                    0.30272266,
                    0.09733359,
                    0.28290685
                ],
                "xyz": [
                    2.0654433975784934,
                    0.9108578890601089,
                    1.5675201322694274
                ],
                "label": "O",
                "properties": {}
            },
            {
                "species": [
                    {
                        "element": "O",
                        "occu": 1
                    }
                ],
                "abc": [
                    0.80272266,
                    0.40266641,
                    0.21709315
                ],
                "xyz": [
                    5.4768883775784944,
                    3.7681942709398912,
                    1.2028619427305727
                ],
                "label": "O",
                "properties": {}
            },
            {
                "species": [
                    {
                        "element": "O",
                        "occu": 1
                    }
                ],
                "abc": [
                    0.19727734,
                    0.59733359,
                    0.78290685
                ],
                "xyz": [
                    1.3460015824215064,
                    5.589910049060109,
                    4.337902207269428
                ],
                "label": "O",
                "properties": {}
            },
            {
                "species": [
                    {
                        "element": "O",
                        "occu": 1
                    }
                ],
                "abc": [
                    0.69727734,
                    0.90266641,
                    0.28290685
                ],
                "xyz": [
                    4.7574465624215065,
                    8.447246430939892,
                    1.5675201322694274
                ],
                "label": "O",
                "properties": {}
            },
            {
                "species": [
                    {
                        "element": "O",
                        "occu": 1
                    }
                ],
                "abc": [
                    0.80272266,
                    0.40266641,
                    0.78290685
                ],
                "xyz": [
                    5.4768883775784944,
                    3.7681942709398912,
                    4.337902207269428
                ],
                "label": "O",
                "properties": {}
            },
            {
                "species": [
                    {
                        "element": "O",
                        "occu": 1
                    }
                ],
                "abc": [
                    0.30858293,
                    0.8052695,
                    0.0
                ],
                "xyz": [
                    2.105427374924383,
                    7.53579598671424,
                    0.0
                ],
                "label": "O",
                "properties": {}
            },
            {
                "species": [
                    {
                        "element": "O",
                        "occu": 1
                    }
                ],
                "abc": [
                    0.69141707,
                    0.1947305,
                    0.0
                ],
                "xyz": [
                    4.7174625850756176,
                    1.8223083332857601,
                    0.0
                ],
                "label": "O",
                "properties": {}
            },
            {
                "species": [
                    {
                        "element": "O",
                        "occu": 1
                    }
                ],
                "abc": [
                    0.80858293,
                    0.6947305,
                    0.5
                ],
                "xyz": [
                    5.516872354924383,
                    6.501360493285761,
                    2.770382075
                ],
                "label": "O",
                "properties": {}
            }
        ]
    },
    "spacegroup": {
        "source": "spglib",
        "symbol": "Pnnm",
        "number": 58,
        "point_group": "mmm",
        "crystal_system": "orthorhombic",
        "hall": "-P 2 2n"
    },
    "dielectric": {
        "epsilon_ionic": [
            [
                8.93887399,
                0.0,
                0.0
            ],
            [
                0.0,
                5.03742932,
                0.0
            ],
            [
                0.0,
                0.0,
                5.08240548
            ]
        ],
        "epsilon_ionic_avg": 6.352902929999999,
        "epsilon_ionic_eig": [
            8.93887399,
            5.03742932,
            5.08240548
        ],
        "epsilon_electronic": [
            [
                2.67540146,
                0.0,
                0.0
            ],
            [
                0.0,
                2.96306242,
                0.0
            ],
            [
                0.0,
                0.0,
                2.98928622
            ]
        ],
        "epsilon_electronic_avg": 2.8759167,
        "epsilon_electronic_eig": [
            2.67540146,
            2.96306242,
            2.98928622
        ]
    },
    "phonon": {
        "lowest_freq": -0.05500945801965815,
        "frequency": [
            -0.05500945801965815,
            -0.03229672588654774,
            -0.02803300437935507,
            1.0735778329940426,
            2.113557138385804,
            2.1271944502560847,
            2.172872796825147,
            2.3284204416059118,
            2.7980404521389697,
            2.8933706134408,
            3.079826530105527,
            3.3038414815313,
            3.3420392963452805,
            3.78393426288776,
            3.868985761915567,
            4.3429896049489045,
            4.461597772777341,
            4.529809866524046,
            4.608517818126715,
            4.743623338900037,
            5.111866986544842,
            5.353278073168727,
            5.373841311844407,
            5.472173629115806,
            5.571619633658335,
            5.594319705099645,
            5.687773518190803,
            5.740342622430051,
            5.76607863260007,
            5.892335307774985,
            5.948064725814833,
            5.9828651656002,
            6.5371049266437815,
            6.626761492267786,
            6.76894179079577,
            6.989048844640863,
            7.263509674081952,
            7.314703627434585,
            7.41153476613289,
            7.651940697295876,
            7.803770897688636,
            7.83287449152144,
            7.94459111557963,
            7.948041630617894,
            8.288168541410318,
            8.46405363898706,
            8.812934299206058,
            10.25762375943653,
            16.98536758279995,
            17.04074873907093,
            17.056827182068616,
            17.08336198826488,
            17.210273596153797,
            17.314812033264214,
            17.363705847630587,
            17.7604097090076,
            21.829344537273627,
            21.878182986318983,
            21.946226795382863,
            22.08277053540154,
            27.84872341216647,
            27.90146863662552,
            27.962915309003094,
            28.471691417236187,
            35.17266245919139,
            35.32977722132875,
            35.3382022636251,
            35.36525980118913,
            35.375830686723425,
            35.48551680090475,
            35.671672633146095,
            39.312608630206086
        ]
    },
    "born_effective_charge": {
        "avg_abs_trace": 1.976063611111111,
        "tensors": [
            [
                [
                    1.03726,
                    -0.16894,
                    -0.0
                ],
                [
                    -0.1306,
                    1.21224,
                    0.0
                ],
                [
                    -5e-05,
                    -0.0,
                    1.2187
                ]
            ],
            [
                [
                    1.03724,
                    -0.16895,
                    -0.0
                ],
                [
                    -0.13061,
                    1.21224,
                    0.0
                ],
                [
                    5e-05,
                    0.0,
                    1.2187
                ]
            ],
            [
                [
                    1.03726,
                    0.16894,
                    -0.0
                ],
                [
                    0.13061,
                    1.21224,
                    0.0
                ],
                [
                    -5e-05,
                    0.0,
                    1.2187
                ]
            ],
            [
                [
                    1.39923,
                    -0.02265,
                    -0.0
                ],
                [
                    -0.02426,
                    1.10792,
                    0.0
                ],
                [
                    0.0,
                    -0.0,
                    1.04061
                ]
            ],
            [
                [
                    1.03724,
                    0.16895,
                    -0.0
                ],
                [
                    0.1306,
                    1.21224,
                    0.0
                ],
                [
                    5e-05,
                    -0.0,
                    1.2187
                ]
            ],
            [
                [
                    1.39923,
                    0.02265,
                    -0.0
                ],
                [
                    0.02426,
                    1.10792,
                    0.0
                ],
                [
                    0.0,
                    -0.0,
                    1.04061
                ]
            ],
            [
                [
                    3.91583,
                    0.21248,
                    -0.0
                ],
                [
                    0.03488,
                    4.13977,
                    0.0
                ],
                [
                    0.0,
                    -0.0,
                    4.13681
                ]
            ],
            [
                [
                    3.91583,
                    -0.21248,
                    -0.0
                ],
                [
                    -0.03488,
                    4.13977,
                    0.0
                ],
                [
                    0.0,
                    -0.0,
                    4.13681
                ]
            ],
            [
                [
                    0.68623,
                    1.18074,
                    -0.0
                ],
                [
                    0.99502,
                    2.73358,
                    0.0
                ],
                [
                    -0.0,
                    2e-05,
                    3.02648
                ]
            ],
            [
                [
                    0.68624,
                    1.18075,
                    -0.0
                ],
                [
                    0.99503,
                    2.7336,
                    0.0
                ],
                [
                    0.0,
                    -2e-05,
                    3.02648
                ]
            ],
            [
                [
                    0.68624,
                    -1.18075,
                    -0.0
                ],
                [
                    -0.99502,
                    2.73358,
                    0.0
                ],
                [
                    0.0,
                    2e-05,
                    3.02648
                ]
            ],
            [
                [
                    0.68623,
                    -1.18074,
                    -0.0
                ],
                [
                    -0.99503,
                    2.7336,
                    0.0
                ],
                [
                    -0.0,
                    -2e-05,
                    3.02648
                ]
            ],
            [
                [
                    -1.40914,
                    0.41241,
                    -0.43724
                ],
                [
                    0.44126,
                    -1.80858,
                    0.68883
                ],
                [
                    -0.54988,
                    0.6977,
                    -2.6907
                ]
            ],
            [
                [
                    -1.40914,
                    -0.41245,
                    0.4373
                ],
                [
                    -0.44126,
                    -1.80858,
                    0.68883
                ],
                [
                    0.54988,
                    0.6977,
                    -2.6907
                ]
            ],
            [
                [
                    -1.56268,
                    1.02507,
                    -0.0
                ],
                [
                    0.97236,
                    -2.95252,
                    0.0
                ],
                [
                    8e-05,
                    6e-05,
                    -1.45238
                ]
            ],
            [
                [
                    -1.40914,
                    0.41245,
                    0.4373
                ],
                [
                    0.44125,
                    -1.80857,
                    -0.68883
                ],
                [
                    0.54988,
                    -0.6977,
                    -2.6907
                ]
            ],
            [
                [
                    -1.40914,
                    0.41241,
                    0.43724
                ],
                [
                    0.44126,
                    -1.80858,
                    -0.68883
                ],
                [
                    0.55002,
                    -0.6977,
                    -2.69081
                ]
            ],
            [
                [
                    -1.40914,
                    -0.41241,
                    -0.43724
                ],
                [
                    -0.44125,
                    -1.80857,
                    -0.68883
                ],
                [
                    -0.54988,
                    -0.6977,
                    -2.6907
                ]
            ],
            [
                [
                    -1.40914,
                    -0.41245,
                    -0.4373
                ],
                [
                    -0.44126,
                    -1.80858,
                    -0.68883
                ],
                [
                    -0.55002,
                    -0.6977,
                    -2.69081
                ]
            ],
            [
                [
                    -1.40914,
                    0.41245,
                    -0.4373
                ],
                [
                    0.44125,
                    -1.80857,
                    0.68883
                ],
                [
                    -0.55002,
                    0.6977,
                    -2.69081
                ]
            ],
            [
                [
                    -1.40914,
                    -0.41241,
                    0.43724
                ],
                [
                    -0.44125,
                    -1.80857,
                    0.68883
                ],
                [
                    0.55002,
                    0.6977,
                    -2.69081
                ]
            ],
            [
                [
                    -1.56276,
                    -1.02505,
                    -0.0
                ],
                [
                    -0.97236,
                    -2.95252,
                    0.0
                ],
                [
                    -8e-05,
                    6e-05,
                    -1.45238
                ]
            ],
            [
                [
                    -1.56268,
                    -1.02507,
                    -0.0
                ],
                [
                    -0.97236,
                    -2.95253,
                    0.0
                ],
                [
                    8e-05,
                    -6e-05,
                    -1.45238
                ]
            ],
            [
                [
                    -1.56276,
                    1.02505,
                    -0.0
                ],
                [
                    0.97236,
                    -2.95253,
                    0.0
                ],
                [
                    -8e-05,
                    -6e-05,
                    -1.45238
                ]
            ]
        ]
    },
    "band_gap": 3.1509,
    "is_direct": true,
    "formula": "K3Y(BO3)2"
}