{
    "mp_id": "mp-540950",
    "nelements": 4,
    "nsites": 30,
    "elements": [
        "Ba",
        "O",
        "Sr",
        "Ta"
    ],
    "structure": {
        "@module": "pymatgen.core.structure",
        "@class": "Structure",
        "charge": null,
        "lattice": {
            "matrix": [
                [
                    6.07858229,
                    -1.61e-06,
                    0.0
                ],
                [
                    -3.03928975,
                    5.2642075,
                    0.0
                ],
                [
                    0.0,
                    0.0,
                    15.46287031
                ]
            ],
            "a": 6.078582290000213,
            "b": 6.078582300792786,
            "c": 15.46287031,
            "alpha": 90.0,
            "beta": 90.0,
            "gamma": 119.99999993365769,
            "volume": 494.79505085866765
        },
        "sites": [
            {
                "species": [
                    {
                        "element": "Ba",
                        "occu": 1
                    }
                ],
                "abc": [
                    0.0,
                    0.0,
                    0.25
                ],
                "xyz": [
                    0.0,
                    0.0,
                    3.8657175775
                ],
                "label": "Ba",
                "properties": {}
            },
            {
                "species": [
                    {
                        "element": "Ba",
                        "occu": 1
                    }
                ],
                "abc": [
                    0.0,
                    0.0,
                    0.75
                ],
                "xyz": [
                    0.0,
                    0.0,
                    11.5971527325
                ],
                "label": "Ba",
                "properties": {}
            },
            {
                "species": [
                    {
                        "element": "Ba",
                        "occu": 1
                    }
                ],
                "abc": [
                    0.333333,
                    0.666667,
                    0.11835521
                ],
                "xyz": [
                    -2.109290679896958e-06,
                    3.50947288473637,
                    1.830111262742815
                ],
                "label": "Ba",
                "properties": {}
            },
            {
                "species": [
                    {
                        "element": "Ba",
                        "occu": 1
                    }
                ],
                "abc": [
                    0.666667,
                    0.333333,
                    0.61835521
                ],
                "xyz": [
                    3.03929464929068,
                    1.75473300526363,
                    9.561546417742816
                ],
                "label": "Ba",
                "properties": {}
            },
            {
                "species": [
                    {
                        "element": "Ba",
                        "occu": 1
                    }
                ],
                "abc": [
                    0.666667,
                    0.333333,
                    0.88164479
                ],
                "xyz": [
                    3.03929464929068,
                    1.75473300526363,
                    13.632759047257183
                ],
                "label": "Ba",
                "properties": {}
            },
            {
                "species": [
                    {
                        "element": "Ba",
                        "occu": 1
                    }
                ],
                "abc": [
                    0.333333,
                    0.666667,
                    0.38164479
                ],
                "xyz": [
                    -2.109290679896958e-06,
                    3.50947288473637,
                    5.901323892257185
                ],
                "label": "Ba",
                "properties": {}
            },
            {
                "species": [
                    {
                        "element": "Sr",
                        "occu": 1
                    }
                ],
                "abc": [
                    0.0,
                    0.0,
                    0.0
                ],
                "xyz": [
                    0.0,
                    0.0,
                    0.0
                ],
                "label": "Sr",
                "properties": {}
            },
            {
                "species": [
                    {
                        "element": "Sr",
                        "occu": 1
                    }
                ],
                "abc": [
                    0.0,
                    0.0,
                    0.5
                ],
                "xyz": [
                    0.0,
                    0.0,
                    7.731435155
                ],
                "label": "Sr",
                "properties": {}
            },
            {
                "species": [
                    {
                        "element": "Ta",
                        "occu": 1
                    }
                ],
                "abc": [
                    0.333333,
                    0.666667,
                    0.84501304
                ],
                "xyz": [
                    -2.109290679896958e-06,
                    3.50947288473637,
                    13.066327047778842
                ],
                "label": "Ta",
                "properties": {}
            },
            {
                "species": [
                    {
                        "element": "Ta",
                        "occu": 1
                    }
                ],
                "abc": [
                    0.666667,
                    0.333333,
                    0.34501304
                ],
                "xyz": [
                    3.03929464929068,
                    1.75473300526363,
                    5.334891892778842
                ],
                "label": "Ta",
                "properties": {}
            },
            {
                "species": [
                    {
                        "element": "Ta",
                        "occu": 1
                    }
                ],
                "abc": [
                    0.666667,
                    0.333333,
                    0.15498696
                ],
                "xyz": [
                    3.03929464929068,
                    1.75473300526363,
                    2.3965432622211575
                ],
                "label": "Ta",
                "properties": {}
            },
            {
                "species": [
                    {
                        "element": "Ta",
                        "occu": 1
                    }
                ],
                "abc": [
                    0.333333,
                    0.666667,
                    0.65498696
                ],
                "xyz": [
                    -2.109290679896958e-06,
                    3.50947288473637,
                    10.127978417221158
                ],
                "label": "Ta",
                "properties": {}
            },
            {
                "species": [
                    {
                        "element": "O",
                        "occu": 1
                    }
                ],
                "abc": [
                    0.57106898,
                    0.04430312,
                    0.25
                ],
                "xyz": [
                    3.336639769687344,
                    0.23321989715634223,
                    3.8657175775
                ],
                "label": "O",
                "properties": {}
            },
            {
                "species": [
                    {
                        "element": "O",
                        "occu": 1
                    }
                ],
                "abc": [
                    0.52676586,
                    0.57106898,
                    0.75
                ],
                "xyz": [
                    1.4663455301156645,
                    3.0062247594403155,
                    11.5971527325
                ],
                "label": "O",
                "properties": {}
            },
            {
                "species": [
                    {
                        "element": "O",
                        "occu": 1
                    }
                ],
                "abc": [
                    0.04430312,
                    0.47323414,
                    0.75
                ],
                "xyz": [
                    -1.1689955104283203,
                    2.4912026377160275,
                    11.5971527325
                ],
                "label": "O",
                "properties": {}
            },
            {
                "species": [
                    {
                        "element": "O",
                        "occu": 1
                    }
                ],
                "abc": [
                    0.95569688,
                    0.52676586,
                    0.25
                ],
                "xyz": [
                    4.20828805042832,
                    2.7730032522839734,
                    3.8657175775
                ],
                "label": "O",
                "properties": {}
            },
            {
                "species": [
                    {
                        "element": "O",
                        "occu": 1
                    }
                ],
                "abc": [
                    0.47323414,
                    0.42893102,
                    0.25
                ],
                "xyz": [
                    1.5729470098843354,
                    2.2579811305596844,
                    3.8657175775
                ],
                "label": "O",
                "properties": {}
            },
            {
                "species": [
                    {
                        "element": "O",
                        "occu": 1
                    }
                ],
                "abc": [
                    0.42893102,
                    0.95569688,
                    0.75
                ],
                "xyz": [
                    -0.29734722968734406,
                    5.030985992843657,
                    11.5971527325
                ],
                "label": "O",
                "properties": {}
            },
            {
                "species": [
                    {
                        "element": "O",
                        "occu": 1
                    }
                ],
                "abc": [
                    0.75818249,
                    0.64667758,
                    0.09775087
                ],
                "xyz": [
                    2.6432341158532973,
                    3.4042437460440413,
                    1.5115090254996697
                ],
                "label": "O",
                "properties": {}
            },
            {
                "species": [
                    {
                        "element": "O",
                        "occu": 1
                    }
                ],
                "abc": [
                    0.11150391,
                    0.75818249,
                    0.59775087
                ],
                "xyz": [
                    -1.626550577894724,
                    3.9912297707053805,
                    9.24294418049967
                ],
                "label": "O",
                "properties": {}
            },
            {
                "species": [
                    {
                        "element": "O",
                        "occu": 1
                    }
                ],
                "abc": [
                    0.64667758,
                    0.88849609,
                    0.59775087
                ],
                "xyz": [
                    1.2304858258759808,
                    4.677226739547771,
                    9.24294418049967
                ],
                "label": "O",
                "properties": {}
            },
            {
                "species": [
                    {
                        "element": "O",
                        "occu": 1
                    }
                ],
                "abc": [
                    0.35332242,
                    0.11150391,
                    0.09775087
                ],
                "xyz": [
                    1.8088067141240196,
                    0.5869791504522288,
                    1.5115090254996697
                ],
                "label": "O",
                "properties": {}
            },
            {
                "species": [
                    {
                        "element": "O",
                        "occu": 1
                    }
                ],
                "abc": [
                    0.88849609,
                    0.24181751,
                    0.09775087
                ],
                "xyz": [
                    4.665843117894724,
                    1.2729761192946203,
                    1.5115090254996697
                ],
                "label": "O",
                "properties": {}
            },
            {
                "species": [
                    {
                        "element": "O",
                        "occu": 1
                    }
                ],
                "abc": [
                    0.24181751,
                    0.35332242,
                    0.59775087
                ],
                "xyz": [
                    0.3960584241467029,
                    1.8599621439559593,
                    9.24294418049967
                ],
                "label": "O",
                "properties": {}
            },
            {
                "species": [
                    {
                        "element": "O",
                        "occu": 1
                    }
                ],
                "abc": [
                    0.24181751,
                    0.35332242,
                    0.90224913
                ],
                "xyz": [
                    0.3960584241467029,
                    1.8599621439559593,
                    13.95136128450033
                ],
                "label": "O",
                "properties": {}
            },
            {
                "species": [
                    {
                        "element": "O",
                        "occu": 1
                    }
                ],
                "abc": [
                    0.88849609,
                    0.24181751,
                    0.40224913
                ],
                "xyz": [
                    4.665843117894724,
                    1.2729761192946203,
                    6.2199261295003305
                ],
                "label": "O",
                "properties": {}
            },
            {
                "species": [
                    {
                        "element": "O",
                        "occu": 1
                    }
                ],
                "abc": [
                    0.35332242,
                    0.11150391,
                    0.40224913
                ],
                "xyz": [
                    1.8088067141240196,
                    0.5869791504522288,
                    6.2199261295003305
                ],
                "label": "O",
                "properties": {}
            },
            {
                "species": [
                    {
                        "element": "O",
                        "occu": 1
                    }
                ],
                "abc": [
                    0.64667758,
                    0.88849609,
                    0.90224913
                ],
                "xyz": [
                    1.2304858258759808,
                    4.677226739547771,
                    13.95136128450033
                ],
                "label": "O",
                "properties": {}
            },
            {
                "species": [
                    {
                        "element": "O",
                        "occu": 1
                    }
                ],
                "abc": [
                    0.11150391,
                    0.75818249,
                    0.90224913
                ],
                "xyz": [
                    -1.626550577894724,
                    3.9912297707053805,
                    13.95136128450033
                ],
                "label": "O",
                "properties": {}
            },
            {
                "species": [
                    {
                        "element": "O",
                        "occu": 1
                    }
                ],
                "abc": [
                    0.75818249,
                    0.64667758,
                    0.40224913
                ],
                "xyz": [
                    2.6432341158532973,
                    3.4042437460440413,
                    6.2199261295003305
                ],
                "label": "O",
                "properties": {}
            }
        ]
    },
    "spacegroup": {
        "source": "spglib",
        "symbol": "P6_3/m",
        "number": 176,
        "point_group": "6/m",
        "crystal_system": "hexagonal",
        "hall": "-P 6c"
    },
    "dielectric": {
        "epsilon_ionic": [
            [
                13.42653763,
                -0.00101264,
                -0.0
            ],
            [
                -0.00101264,
                13.42602858,
                -0.0
            ],
            [
                -0.0,
                -0.0,
                20.24272168
            ]
        ],
        "epsilon_ionic_avg": 15.698429296666665,
        "epsilon_ionic_eig": [
            13.427327242321057,
            13.425238967678943,
            20.24272168
        ],
        "epsilon_electronic": [
            [
                4.09571085,
                2.25e-06,
                0.0
            ],
            [
                -2.25e-06,
                4.09571173,
                0.0
            ],
            [
                0.0,
                0.0,
                3.74594181
            ]
        ],
        "epsilon_electronic_avg": 3.9791214633333336,
        "epsilon_electronic_eig": [
            4.095711290000001,
            4.095711290000001,
            3.74594181
        ]
    },
    "phonon": {
        "lowest_freq": -0.0336234111654189,
        "frequency": [
            -0.0336234111654189,
            -0.031840167298376895,
            -0.03184016384424727,
            0.7020411944113188,
            0.702041251852421,
            1.0696675798871356,
            1.124499273602603,
            1.1244993855333658,
            1.2301104453168903,
            1.230110572473014,
            1.5443838609394167,
            2.2761120219819975,
            2.2790602131125315,
            2.445375315888619,
            2.6512879046032642,
            2.7517285395322775,
            2.829794009263188,
            2.8297942597267722,
            2.883698156575135,
            2.8836984362578035,
            3.6703265482769276,
            3.6703268046411663,
            3.691175455780725,
            3.6911757404923398,
            3.863257297106534,
            3.8632576387251607,
            3.9000400410714784,
            3.9000403575350533,
            4.026859155403773,
            4.026859474039363,
            4.346362966202499,
            4.346363252980351,
            4.534992515971922,
            4.786936328075998,
            4.786936570590315,
            4.904831633766903,
            4.904832000005957,
            5.1597702948792685,
            5.212568424414715,
            5.29563785874775,
            5.295638320259899,
            5.355416002084271,
            5.716939876358895,
            5.7169403466107065,
            6.357591043595616,
            6.823179937273235,
            6.918546917085783,
            7.102350770760254,
            8.108438078552888,
            8.16240865788643,
            8.442407296361502,
            8.847254519592298,
            8.847254712963123,
            9.234007520011975,
            9.23400787732181,
            9.345403474937735,
            9.345403671077042,
            9.57306232789653,
            9.573062621491344,
            9.982477475291429,
            10.009057756654432,
            10.009058635698649,
            10.037204502641952,
            10.037205440094667,
            10.26478548605821,
            10.520461541970782,
            12.975803876296949,
            12.975803895132017,
            12.987437696272023,
            12.98743771509022,
            13.026221979157373,
            13.026222072968201,
            13.032676956893214,
            13.03267704128114,
            14.568938575606548,
            16.29300724399931,
            16.30219938996364,
            17.26579787892347,
            18.555558783282635,
            18.555559507702043,
            18.575193267040085,
            18.575194056480463,
            18.782200293851325,
            18.78220107459093,
            18.80308953253539,
            18.803090377396984,
            21.769177968688165,
            22.98364877183363,
            22.99927615090144,
            23.246546761327405
        ]
    },
    "born_effective_charge": {
        "avg_abs_trace": 2.8292293333333336,
        "tensors": [
            [
                [
                    2.98341,
                    0.00568,
                    -0.0
                ],
                [
                    -0.00587,
                    2.98343,
                    0.0
                ],
                [
                    0.0,
                    0.0,
                    1.90831
                ]
            ],
            [
                [
                    2.98334,
                    0.00574,
                    -0.0
                ],
                [
                    -0.00586,
                    2.98316,
                    0.0
                ],
                [
                    0.0,
                    0.0,
                    1.90831
                ]
            ],
            [
                [
                    3.01271,
                    0.09894,
                    0.00017
                ],
                [
                    -0.09911,
                    3.01264,
                    -0.00025
                ],
                [
                    0.0,
                    0.0,
                    2.283
                ]
            ],
            [
                [
                    3.01286,
                    0.09879,
                    -0.00033
                ],
                [
                    -0.09921,
                    3.01303,
                    -8e-05
                ],
                [
                    0.0,
                    0.0,
                    2.283
                ]
            ],
            [
                [
                    3.01286,
                    0.09879,
                    0.00033
                ],
                [
                    -0.09921,
                    3.01303,
                    8e-05
                ],
                [
                    0.0,
                    0.0,
                    2.28268
                ]
            ],
            [
                [
                    3.01271,
                    0.09894,
                    -0.00017
                ],
                [
                    -0.09911,
                    3.01264,
                    0.00025
                ],
                [
                    0.0,
                    0.0,
                    2.28268
                ]
            ],
            [
                [
                    2.8059,
                    -0.18283,
                    0.00018
                ],
                [
                    0.18268,
                    2.80563,
                    0.00017
                ],
                [
                    0.0,
                    0.0,
                    3.50718
                ]
            ],
            [
                [
                    2.8059,
                    -0.18283,
                    -0.00018
                ],
                [
                    0.18268,
                    2.80563,
                    -0.00017
                ],
                [
                    0.0,
                    0.0,
                    3.50718
                ]
            ],
            [
                [
                    5.10897,
                    -0.10944,
                    -0.00018
                ],
                [
                    0.10899,
                    5.10879,
                    -0.00016
                ],
                [
                    0.0,
                    0.0,
                    4.80581
                ]
            ],
            [
                [
                    5.10902,
                    -0.10943,
                    0.00032
                ],
                [
                    0.10893,
                    5.10874,
                    7e-05
                ],
                [
                    0.0,
                    0.0,
                    4.80581
                ]
            ],
            [
                [
                    5.10902,
                    -0.10943,
                    -0.00032
                ],
                [
                    0.10893,
                    5.10874,
                    -7e-05
                ],
                [
                    0.0,
                    0.0,
                    4.80571
                ]
            ],
            [
                [
                    5.10897,
                    -0.10944,
                    0.00018
                ],
                [
                    0.10899,
                    5.10879,
                    0.00016
                ],
                [
                    0.0,
                    0.0,
                    4.80571
                ]
            ],
            [
                [
                    -1.76558,
                    0.29163,
                    -0.0
                ],
                [
                    0.25853,
                    -2.9081,
                    0.0
                ],
                [
                    -6e-05,
                    0.00017,
                    -2.4539
                ]
            ],
            [
                [
                    -2.86038,
                    0.37315,
                    -0.0
                ],
                [
                    0.34042,
                    -1.81184,
                    0.0
                ],
                [
                    -0.00017,
                    3e-05,
                    -2.4539
                ]
            ],
            [
                [
                    -2.38354,
                    -0.61578,
                    -0.0
                ],
                [
                    -0.64907,
                    -2.28989,
                    0.0
                ],
                [
                    0.00011,
                    0.00013,
                    -2.4539
                ]
            ],
            [
                [
                    -2.38378,
                    -0.6161,
                    -0.0
                ],
                [
                    -0.6483,
                    -2.2898,
                    0.0
                ],
                [
                    -0.00011,
                    -0.00013,
                    -2.4539
                ]
            ],
            [
                [
                    -2.86058,
                    0.37329,
                    -0.0
                ],
                [
                    0.34111,
                    -1.81174,
                    0.0
                ],
                [
                    0.00017,
                    -3e-05,
                    -2.4539
                ]
            ],
            [
                [
                    -1.76566,
                    0.29176,
                    -0.0
                ],
                [
                    0.25882,
                    -2.90781,
                    0.0
                ],
                [
                    6e-05,
                    -0.00017,
                    -2.4539
                ]
            ],
            [
                [
                    -1.85954,
                    0.42751,
                    -0.14544
                ],
                [
                    0.37802,
                    -3.14809,
                    0.90339
                ],
                [
                    -0.13137,
                    1.01615,
                    -2.03844
                ]
            ],
            [
                [
                    -3.17462,
                    0.38168,
                    -0.855
                ],
                [
                    0.33275,
                    -1.83289,
                    0.32571
                ],
                [
                    -0.9457,
                    0.3943,
                    -2.03844
                ]
            ],
            [
                [
                    -2.47753,
                    -0.73446,
                    0.70951
                ],
                [
                    -0.78358,
                    -2.53005,
                    0.57765
                ],
                [
                    0.81432,
                    0.62185,
                    -2.03844
                ]
            ],
            [
                [
                    -2.47745,
                    -0.73443,
                    -0.70967
                ],
                [
                    -0.78414,
                    -2.53019,
                    -0.57761
                ],
                [
                    -0.81432,
                    -0.62185,
                    -2.03844
                ]
            ],
            [
                [
                    -3.17461,
                    0.38156,
                    0.85519
                ],
                [
                    0.33227,
                    -1.83285,
                    -0.32589
                ],
                [
                    0.9457,
                    -0.3943,
                    -2.03844
                ]
            ],
            [
                [
                    -1.85933,
                    0.42742,
                    0.14566
                ],
                [
                    0.37751,
                    -3.14847,
                    -0.90361
                ],
                [
                    0.13137,
                    -1.01615,
                    -2.03844
                ]
            ],
            [
                [
                    -1.85933,
                    0.42742,
                    -0.14566
                ],
                [
                    0.37751,
                    -3.14847,
                    0.90361
                ],
                [
                    -0.13144,
                    1.01625,
                    -2.03856
                ]
            ],
            [
                [
                    -3.17461,
                    0.38156,
                    -0.85519
                ],
                [
                    0.33227,
                    -1.83285,
                    0.32589
                ],
                [
                    -0.94582,
                    0.39429,
                    -2.03856
                ]
            ],
            [
                [
                    -2.47745,
                    -0.73443,
                    0.70967
                ],
                [
                    -0.78414,
                    -2.53019,
                    0.57761
                ],
                [
                    0.81438,
                    0.62196,
                    -2.03856
                ]
            ],
            [
                [
                    -2.47753,
                    -0.73446,
                    -0.70951
                ],
                [
                    -0.78358,
                    -2.53005,
                    -0.57765
                ],
                [
                    -0.81438,
                    -0.62196,
                    -2.03856
                ]
            ],
            [
                [
                    -3.17462,
                    0.38168,
                    0.855
                ],
                [
                    0.33275,
                    -1.83289,
                    -0.32571
                ],
                [
                    0.94582,
                    -0.39429,
                    -2.03856
                ]
            ],
            [
                [
                    -1.85954,
                    0.42751,
                    0.14544
                ],
                [
                    0.37802,
                    -3.14809,
                    -0.90339
                ],
                [
                    0.13144,
                    -1.01625,
                    -2.03856
                ]
            ]
        ]
    },
    "band_gap": 4.2538,
    "is_direct": false,
    "formula": "Ba3SrTa2O9"
}