{
    "mp_id": "mp-560340",
    "nelements": 3,
    "nsites": 18,
    "elements": [
        "La",
        "O",
        "Pd"
    ],
    "structure": {
        "@module": "pymatgen.core.structure",
        "@class": "Structure",
        "charge": null,
        "lattice": {
            "matrix": [
                [
                    6.63217697,
                    -1e-08,
                    0.0
                ],
                [
                    1e-08,
                    6.63217697,
                    0.0
                ],
                [
                    0.0,
                    0.0,
                    5.55934399
                ]
            ],
            "a": 6.63217697,
            "b": 6.63217697,
            "c": 5.55934399,
            "alpha": 90.0,
            "beta": 90.0,
            "gamma": 90.0,
            "volume": 244.5320336635042
        },
        "sites": [
            {
                "species": [
                    {
                        "element": "La",
                        "occu": 1
                    }
                ],
                "abc": [
                    0.10789479,
                    0.73555491,
                    0.5
                ],
                "xyz": [
                    0.7155773487765353,
                    4.878330333193475,
                    2.779671995
                ],
                "label": "La",
                "properties": {}
            },
            {
                "species": [
                    {
                        "element": "La",
                        "occu": 1
                    }
                ],
                "abc": [
                    0.73555491,
                    0.89210521,
                    0.0
                ],
                "xyz": [
                    4.878330343193475,
                    5.916599621223464,
                    0.0
                ],
                "label": "La",
                "properties": {}
            },
            {
                "species": [
                    {
                        "element": "La",
                        "occu": 1
                    }
                ],
                "abc": [
                    0.89210521,
                    0.26444509,
                    0.5
                ],
                "xyz": [
                    5.916599631223464,
                    1.7538466268065251,
                    2.779671995
                ],
                "label": "La",
                "properties": {}
            },
            {
                "species": [
                    {
                        "element": "La",
                        "occu": 1
                    }
                ],
                "abc": [
                    0.26444509,
                    0.10789479,
                    0.0
                ],
                "xyz": [
                    1.753846636806525,
                    0.7155773387765354,
                    0.0
                ],
                "label": "La",
                "properties": {}
            },
            {
                "species": [
                    {
                        "element": "Pd",
                        "occu": 1
                    }
                ],
                "abc": [
                    0.31154718,
                    0.59456679,
                    0.0
                ],
                "xyz": [
                    2.0662360382101124,
                    3.9432721686493544,
                    0.0
                ],
                "label": "Pd",
                "properties": {}
            },
            {
                "species": [
                    {
                        "element": "Pd",
                        "occu": 1
                    }
                ],
                "abc": [
                    0.40543321,
                    0.31154718,
                    0.5
                ],
                "xyz": [
                    2.6889048013506454,
                    2.0662360282101124,
                    2.779671995
                ],
                "label": "Pd",
                "properties": {}
            },
            {
                "species": [
                    {
                        "element": "Pd",
                        "occu": 1
                    }
                ],
                "abc": [
                    0.68845282,
                    0.40543321,
                    0.0
                ],
                "xyz": [
                    4.565940941789887,
                    2.6889047913506454,
                    0.0
                ],
                "label": "Pd",
                "properties": {}
            },
            {
                "species": [
                    {
                        "element": "Pd",
                        "occu": 1
                    }
                ],
                "abc": [
                    0.59456679,
                    0.68845282,
                    0.5
                ],
                "xyz": [
                    3.9432721786493543,
                    4.565940931789887,
                    2.779671995
                ],
                "label": "Pd",
                "properties": {}
            },
            {
                "species": [
                    {
                        "element": "O",
                        "occu": 1
                    }
                ],
                "abc": [
                    0.79791315,
                    0.59363113,
                    0.25754839
                ],
                "xyz": [
                    5.291901223426466,
                    3.9370667010819442,
                    1.4318000940806763
                ],
                "label": "O",
                "properties": {}
            },
            {
                "species": [
                    {
                        "element": "O",
                        "occu": 1
                    }
                ],
                "abc": [
                    0.40636887,
                    0.79791315,
                    0.75754839
                ],
                "xyz": [
                    2.6951102689180555,
                    5.291901213426466,
                    4.211472089080676
                ],
                "label": "O",
                "properties": {}
            },
            {
                "species": [
                    {
                        "element": "O",
                        "occu": 1
                    }
                ],
                "abc": [
                    0.20208685,
                    0.40636887,
                    0.74245161
                ],
                "xyz": [
                    1.3402757565735333,
                    2.6951102589180556,
                    4.127543895919325
                ],
                "label": "O",
                "properties": {}
            },
            {
                "species": [
                    {
                        "element": "O",
                        "occu": 1
                    }
                ],
                "abc": [
                    0.20208685,
                    0.40636887,
                    0.25754839
                ],
                "xyz": [
                    1.3402757565735333,
                    2.6951102589180556,
                    1.4318000940806763
                ],
                "label": "O",
                "properties": {}
            },
            {
                "species": [
                    {
                        "element": "O",
                        "occu": 1
                    }
                ],
                "abc": [
                    0.0,
                    0.0,
                    0.75
                ],
                "xyz": [
                    0.0,
                    0.0,
                    4.1695079925
                ],
                "label": "O",
                "properties": {}
            },
            {
                "species": [
                    {
                        "element": "O",
                        "occu": 1
                    }
                ],
                "abc": [
                    0.59363113,
                    0.20208685,
                    0.75754839
                ],
                "xyz": [
                    3.937066711081944,
                    1.3402757465735333,
                    4.211472089080676
                ],
                "label": "O",
                "properties": {}
            },
            {
                "species": [
                    {
                        "element": "O",
                        "occu": 1
                    }
                ],
                "abc": [
                    0.59363113,
                    0.20208685,
                    0.24245161
                ],
                "xyz": [
                    3.937066711081944,
                    1.3402757465735333,
                    1.347871900919324
                ],
                "label": "O",
                "properties": {}
            },
            {
                "species": [
                    {
                        "element": "O",
                        "occu": 1
                    }
                ],
                "abc": [
                    0.79791315,
                    0.59363113,
                    0.74245161
                ],
                "xyz": [
                    5.291901223426466,
                    3.9370667010819442,
                    4.127543895919325
                ],
                "label": "O",
                "properties": {}
            },
            {
                "species": [
                    {
                        "element": "O",
                        "occu": 1
                    }
                ],
                "abc": [
                    0.0,
                    0.0,
                    0.25
                ],
                "xyz": [
                    0.0,
                    0.0,
                    1.3898359975
                ],
                "label": "O",
                "properties": {}
            },
            {
                "species": [
                    {
                        "element": "O",
                        "occu": 1
                    }
                ],
                "abc": [
                    0.40636887,
                    0.79791315,
                    0.24245161
                ],
                "xyz": [
                    2.6951102689180555,
                    5.291901213426466,
                    1.347871900919324
                ],
                "label": "O",
                "properties": {}
            }
        ]
    },
    "spacegroup": {
        "source": "spglib",
        "symbol": "P4_2/m",
        "number": 84,
        "point_group": "4/m",
        "crystal_system": "tetragonal",
        "hall": "-P 4c"
    },
    "dielectric": {
        "epsilon_ionic": [
            [
                10.98367867,
                -4.8e-07,
                4e-08
            ],
            [
                -4.8e-07,
                10.98344525,
                0.0
            ],
            [
                4e-08,
                0.0,
                9.28169496
            ]
        ],
        "epsilon_ionic_avg": 10.416272960000002,
        "epsilon_ionic_eig": [
            10.983678670987059,
            10.983445249012947,
            9.28169496
        ],
        "epsilon_electronic": [
            [
                5.98482427,
                7.6e-07,
                0.0
            ],
            [
                -7.6e-07,
                5.98482427,
                0.0
            ],
            [
                0.0,
                0.0,
                7.62451442
            ]
        ],
        "epsilon_electronic_avg": 6.531387653333333,
        "epsilon_electronic_eig": [
            5.98482427,
            5.98482427,
            7.62451442
        ]
    },
    "phonon": {
        "lowest_freq": -0.05649390923262088,
        "frequency": [
            -0.05649390923262088,
            -0.05649390923262088,
            -0.053981367355428175,
            2.966688425278275,
            3.2899006961695703,
            3.2899006961695703,
            3.355778245605514,
            3.355778245605514,
            3.4662977876632146,
            3.487390412028704,
            4.104621674771498,
            4.104621674771498,
            4.301392142027058,
            4.7707075367586445,
            4.89878463520107,
            4.90433057818063,
            4.90433057818063,
            5.197170618847609,
            5.238611474882168,
            5.43110210830029,
            5.54005850705423,
            5.54005850705423,
            6.600129104038621,
            7.140028504220411,
            9.059765040064239,
            9.446291683219096,
            9.661968131792838,
            9.661968131792838,
            9.88753114039156,
            9.88753114039156,
            10.385494659321662,
            10.385494659321662,
            10.647778595769717,
            11.319250355403133,
            12.0058646469281,
            12.174920592734047,
            12.174920592734047,
            12.195339910169412,
            12.572349785357792,
            13.066324398397496,
            13.066324398397496,
            14.201765131560961,
            14.201765131560961,
            14.437421111348492,
            14.670111064287344,
            15.550916235877631,
            15.670131948237195,
            15.670131948237195,
            15.835107493354986,
            16.03401769734829,
            16.299734843331784,
            16.833316892332903,
            16.833316892332903,
            17.221700829768473
        ]
    },
    "born_effective_charge": {
        "avg_abs_trace": 2.444940740740741,
        "tensors": [
            [
                [
                    5.21034,
                    -0.64257,
                    0.0
                ],
                [
                    -0.59869,
                    4.32667,
                    0.0
                ],
                [
                    -0.00043,
                    2e-05,
                    4.26693
                ]
            ],
            [
                [
                    4.32668,
                    0.59885,
                    0.0
                ],
                [
                    0.64266,
                    5.21027,
                    0.0
                ],
                [
                    2e-05,
                    0.00043,
                    4.26693
                ]
            ],
            [
                [
                    5.21067,
                    -0.64277,
                    0.0
                ],
                [
                    -0.59871,
                    4.3266,
                    0.0
                ],
                [
                    0.00043,
                    -2e-05,
                    4.26693
                ]
            ],
            [
                [
                    4.32665,
                    0.59856,
                    0.0
                ],
                [
                    0.64267,
                    5.2106,
                    0.0
                ],
                [
                    -2e-05,
                    -0.00043,
                    4.26693
                ]
            ],
            [
                [
                    0.02584,
                    0.77805,
                    0.0
                ],
                [
                    0.84431,
                    0.94632,
                    0.0
                ],
                [
                    0.00023,
                    -0.00017,
                    1.72747
                ]
            ],
            [
                [
                    0.94626,
                    -0.84372,
                    0.0
                ],
                [
                    -0.77784,
                    0.02656,
                    0.0
                ],
                [
                    0.00017,
                    0.00023,
                    1.72747
                ]
            ],
            [
                [
                    0.02571,
                    0.77824,
                    0.0
                ],
                [
                    0.84425,
                    0.94579,
                    0.0
                ],
                [
                    -0.00023,
                    0.00017,
                    1.72747
                ]
            ],
            [
                [
                    0.94584,
                    -0.84486,
                    0.0
                ],
                [
                    -0.77845,
                    0.02502,
                    0.0
                ],
                [
                    -0.00017,
                    -0.00023,
                    1.72747
                ]
            ],
            [
                [
                    -1.80729,
                    -0.0789,
                    -0.22982
                ],
                [
                    -0.09181,
                    -1.86505,
                    0.05284
                ],
                [
                    -0.1764,
                    -0.34733,
                    -2.28528
                ]
            ],
            [
                [
                    -1.86532,
                    0.09152,
                    -0.05301
                ],
                [
                    0.07906,
                    -1.8075,
                    -0.22955
                ],
                [
                    0.34733,
                    -0.1764,
                    -2.28528
                ]
            ],
            [
                [
                    -1.80758,
                    -0.07875,
                    -0.22971
                ],
                [
                    -0.09158,
                    -1.86557,
                    0.05323
                ],
                [
                    -0.17677,
                    -0.34711,
                    -2.28487
                ]
            ],
            [
                [
                    -1.80758,
                    -0.07875,
                    0.22971
                ],
                [
                    -0.09158,
                    -1.86557,
                    -0.05323
                ],
                [
                    0.1764,
                    0.34733,
                    -2.28528
                ]
            ],
            [
                [
                    -3.16346,
                    0.08437,
                    -6e-05
                ],
                [
                    -0.08437,
                    -3.16344,
                    1e-05
                ],
                [
                    -0.0,
                    0.0,
                    -2.84848
                ]
            ],
            [
                [
                    -1.86535,
                    0.09186,
                    0.05307
                ],
                [
                    0.07859,
                    -1.80735,
                    0.22997
                ],
                [
                    -0.34733,
                    0.1764,
                    -2.28528
                ]
            ],
            [
                [
                    -1.86535,
                    0.09186,
                    -0.05307
                ],
                [
                    0.07859,
                    -1.80735,
                    -0.22997
                ],
                [
                    0.34711,
                    -0.17677,
                    -2.28487
                ]
            ],
            [
                [
                    -1.80729,
                    -0.0789,
                    0.22982
                ],
                [
                    -0.09181,
                    -1.86505,
                    -0.05284
                ],
                [
                    0.17677,
                    0.34711,
                    -2.28487
                ]
            ],
            [
                [
                    -3.16346,
                    0.08437,
                    6e-05
                ],
                [
                    -0.08437,
                    -3.16344,
                    -1e-05
                ],
                [
                    -0.0,
                    0.0,
                    -2.84848
                ]
            ],
            [
                [
                    -1.86532,
                    0.09152,
                    0.05301
                ],
                [
                    0.07906,
                    -1.8075,
                    0.22955
                ],
                [
                    -0.34711,
                    0.17677,
                    -2.28487
                ]
            ]
        ]
    },
    "band_gap": 1.8087000000000009,
    "is_direct": false,
    "formula": "La2Pd2O5"
}