{
    "mp_id": "mp-541368",
    "nelements": 3,
    "nsites": 13,
    "elements": [
        "O",
        "Tl",
        "V"
    ],
    "structure": {
        "@module": "pymatgen.core.structure",
        "@class": "Structure",
        "charge": null,
        "lattice": {
            "matrix": [
                [
                    5.91575979,
                    0.0,
                    0.0
                ],
                [
                    -2.95787989,
                    5.12319828,
                    0.0
                ],
                [
                    0.0,
                    0.0,
                    7.70115778
                ]
            ],
            "a": 5.91575979,
            "b": 5.9157598041047414,
            "c": 7.70115778,
            "alpha": 90.0,
            "beta": 90.0,
            "gamma": 119.99999986521117,
            "volume": 233.4036894790099
        },
        "sites": [
            {
                "species": [
                    {
                        "element": "Tl",
                        "occu": 1
                    }
                ],
                "abc": [
                    0.666667,
                    0.333333,
                    0.92016865
                ],
                "xyz": [
                    2.9578828545465603,
                    1.7077310522672402,
                    7.086363957859597
                ],
                "label": "Tl",
                "properties": {}
            },
            {
                "species": [
                    {
                        "element": "Tl",
                        "occu": 1
                    }
                ],
                "abc": [
                    0.333333,
                    0.666667,
                    0.07983135
                ],
                "xyz": [
                    -2.9545465602964782e-06,
                    3.4154672277327602,
                    0.614793822140403
                ],
                "label": "Tl",
                "properties": {}
            },
            {
                "species": [
                    {
                        "element": "Tl",
                        "occu": 1
                    }
                ],
                "abc": [
                    0.666667,
                    0.333333,
                    0.41212635
                ],
                "xyz": [
                    2.9578828545465603,
                    1.7077310522672402,
                    3.173850046645503
                ],
                "label": "Tl",
                "properties": {}
            },
            {
                "species": [
                    {
                        "element": "Tl",
                        "occu": 1
                    }
                ],
                "abc": [
                    0.333333,
                    0.666667,
                    0.58787365
                ],
                "xyz": [
                    -2.9545465602964782e-06,
                    3.4154672277327602,
                    4.5273077333544975
                ],
                "label": "Tl",
                "properties": {}
            },
            {
                "species": [
                    {
                        "element": "V",
                        "occu": 1
                    }
                ],
                "abc": [
                    0.0,
                    0.0,
                    0.73493199
                ],
                "xyz": [
                    0.0,
                    0.0,
                    5.659827212559382
                ],
                "label": "V",
                "properties": {}
            },
            {
                "species": [
                    {
                        "element": "V",
                        "occu": 1
                    }
                ],
                "abc": [
                    0.0,
                    0.0,
                    0.26506801
                ],
                "xyz": [
                    0.0,
                    0.0,
                    2.041330567440618
                ],
                "label": "V",
                "properties": {}
            },
            {
                "species": [
                    {
                        "element": "O",
                        "occu": 1
                    }
                ],
                "abc": [
                    0.84189496,
                    0.15810504,
                    0.19471104
                ],
                "xyz": [
                    4.512792633448012,
                    0.8100034689873313,
                    1.4995004405478911
                ],
                "label": "O",
                "properties": {}
            },
            {
                "species": [
                    {
                        "element": "O",
                        "occu": 1
                    }
                ],
                "abc": [
                    0.84189496,
                    0.68378992,
                    0.19471104
                ],
                "xyz": [
                    2.957879898418949,
                    3.503191342025338,
                    1.4995004405478911
                ],
                "label": "O",
                "properties": {}
            },
            {
                "species": [
                    {
                        "element": "O",
                        "occu": 1
                    }
                ],
                "abc": [
                    0.31621008,
                    0.15810504,
                    0.19471104
                ],
                "xyz": [
                    1.4029671581330376,
                    0.8100034689873313,
                    1.4995004405478911
                ],
                "label": "O",
                "properties": {}
            },
            {
                "species": [
                    {
                        "element": "O",
                        "occu": 1
                    }
                ],
                "abc": [
                    0.68378992,
                    0.84189496,
                    0.80528896
                ],
                "xyz": [
                    1.5549127418669624,
                    4.313194811012669,
                    6.201657339452109
                ],
                "label": "O",
                "properties": {}
            },
            {
                "species": [
                    {
                        "element": "O",
                        "occu": 1
                    }
                ],
                "abc": [
                    0.15810504,
                    0.31621008,
                    0.80528896
                ],
                "xyz": [
                    1.5810504017110816e-09,
                    1.6200069379746627,
                    6.201657339452109
                ],
                "label": "O",
                "properties": {}
            },
            {
                "species": [
                    {
                        "element": "O",
                        "occu": 1
                    }
                ],
                "abc": [
                    0.15810504,
                    0.84189496,
                    0.80528896
                ],
                "xyz": [
                    -1.5549127334480128,
                    4.313194811012669,
                    6.201657339452109
                ],
                "label": "O",
                "properties": {}
            },
            {
                "species": [
                    {
                        "element": "O",
                        "occu": 1
                    }
                ],
                "abc": [
                    0.0,
                    0.0,
                    0.5
                ],
                "xyz": [
                    0.0,
                    0.0,
                    3.85057889
                ],
                "label": "O",
                "properties": {}
            }
        ]
    },
    "spacegroup": {
        "source": "spglib",
        "symbol": "P-3m1",
        "number": 164,
        "point_group": "-3m",
        "crystal_system": "trigonal",
        "hall": "-P 3 2\""
    },
    "dielectric": {
        "epsilon_ionic": [
            [
                24.09747813,
                -5.1e-07,
                -0.0
            ],
            [
                -5.1e-07,
                24.09465295,
                0.0001854
            ],
            [
                -0.0,
                0.0001854,
                7.77405732
            ]
        ],
        "epsilon_ionic_avg": 18.655396133333337,
        "epsilon_ionic_eig": [
            24.097478130092057,
            24.094652952014076,
            7.774057317893877
        ],
        "epsilon_electronic": [
            [
                5.81912058,
                0.0,
                0.0
            ],
            [
                0.0,
                5.81911958,
                -0.0
            ],
            [
                0.0,
                0.0,
                5.02761229
            ]
        ],
        "epsilon_electronic_avg": 5.555284149999999,
        "epsilon_electronic_eig": [
            5.81912058,
            5.81911958,
            5.02761229
        ]
    },
    "phonon": {
        "lowest_freq": -0.0381324544209793,
        "frequency": [
            -0.0381324544209793,
            -0.022513164202848865,
            -0.022513162248791,
            0.8876754995087538,
            0.8876755766000263,
            1.048529737430876,
            1.0485298260044686,
            1.3641653221797108,
            1.4287318840127927,
            1.4287320071766199,
            1.828137681195517,
            2.1431076250766687,
            2.1431077904347555,
            2.276112666238768,
            2.3083274817298753,
            2.3168232878662685,
            3.3042401802084056,
            3.790687680466922,
            3.7906880060597206,
            4.542897833052308,
            4.542898112803403,
            6.989736231671609,
            6.989736319085541,
            7.959588192363093,
            9.021333507963474,
            9.021333765331324,
            9.070781168795314,
            9.070781316985496,
            9.448185600574163,
            9.448185923916837,
            9.609079050653238,
            13.811805138912147,
            22.286790315228114,
            23.578900830852906,
            23.578902230155485,
            23.704238296094182,
            23.704239687997873,
            24.995635134895373,
            25.608320203343983
        ]
    },
    "born_effective_charge": {
        "avg_abs_trace": 2.47336,
        "tensors": [
            [
                [
                    2.10213,
                    2e-05,
                    2e-05
                ],
                [
                    -0.0,
                    2.10198,
                    9e-05
                ],
                [
                    0.0,
                    -0.0,
                    2.10534
                ]
            ],
            [
                [
                    2.10213,
                    -2e-05,
                    -2e-05
                ],
                [
                    -0.0,
                    2.10197,
                    3e-05
                ],
                [
                    0.0,
                    -0.0,
                    2.10556
                ]
            ],
            [
                [
                    1.98717,
                    0.00085,
                    -3e-05
                ],
                [
                    -0.0,
                    1.987,
                    0.0
                ],
                [
                    0.0,
                    -0.0,
                    1.82289
                ]
            ],
            [
                [
                    1.98717,
                    -0.00085,
                    3e-05
                ],
                [
                    -0.0,
                    1.98711,
                    4e-05
                ],
                [
                    0.0,
                    -0.0,
                    1.82289
                ]
            ],
            [
                [
                    4.26771,
                    0.00051,
                    1e-05
                ],
                [
                    -0.0,
                    4.26786,
                    9e-05
                ],
                [
                    0.0,
                    -0.0,
                    3.47281
                ]
            ],
            [
                [
                    4.26771,
                    -0.00051,
                    -1e-05
                ],
                [
                    -0.0,
                    4.26758,
                    7e-05
                ],
                [
                    0.0,
                    -0.0,
                    3.47349
                ]
            ],
            [
                [
                    -3.52493,
                    1.46108,
                    -0.47405
                ],
                [
                    1.46071,
                    -1.83773,
                    0.27359
                ],
                [
                    -0.39754,
                    0.22952,
                    -1.65133
                ]
            ],
            [
                [
                    -0.99414,
                    0.00029,
                    -0.00023
                ],
                [
                    -0.0,
                    -4.36801,
                    -0.54727
                ],
                [
                    0.0,
                    -0.45904,
                    -1.65133
                ]
            ],
            [
                [
                    -3.52468,
                    -1.4609,
                    0.4743
                ],
                [
                    -1.46071,
                    -1.83773,
                    0.27359
                ],
                [
                    0.39754,
                    0.22952,
                    -1.65133
                ]
            ],
            [
                [
                    -3.52493,
                    -1.46108,
                    0.47405
                ],
                [
                    -1.46087,
                    -1.83758,
                    0.27379
                ],
                [
                    0.39767,
                    0.2296,
                    -1.65132
                ]
            ],
            [
                [
                    -0.99414,
                    -0.00029,
                    0.00023
                ],
                [
                    -0.0,
                    -4.36805,
                    -0.5477
                ],
                [
                    0.0,
                    -0.45919,
                    -1.65132
                ]
            ],
            [
                [
                    -3.52468,
                    1.4609,
                    -0.4743
                ],
                [
                    1.46087,
                    -1.83758,
                    0.27379
                ],
                [
                    -0.39767,
                    0.2296,
                    -1.65132
                ]
            ],
            [
                [
                    -0.62652,
                    0.0,
                    0.0
                ],
                [
                    -0.0,
                    -0.62683,
                    -0.00013
                ],
                [
                    0.0,
                    -0.0,
                    -4.89506
                ]
            ]
        ]
    },
    "band_gap": 2.3927,
    "is_direct": false,
    "formula": "Tl4V2O7"
}