{
    "mp_id": "mp-557467",
    "nelements": 4,
    "nsites": 26,
    "elements": [
        "B",
        "Ca",
        "Li",
        "O"
    ],
    "structure": {
        "@module": "pymatgen.core.structure",
        "@class": "Structure",
        "charge": null,
        "lattice": {
            "matrix": [
                [
                    8.04033078,
                    0.0,
                    0.0
                ],
                [
                    0.0,
                    9.23367778,
                    0.0
                ],
                [
                    0.0,
                    0.0,
                    3.46515278
                ]
            ],
            "a": 8.04033078,
            "b": 9.23367778,
            "c": 3.46515278,
            "alpha": 90.0,
            "beta": 90.0,
            "gamma": 90.0,
            "volume": 257.25926167244637
        },
        "sites": [
            {
                "species": [
                    {
                        "element": "Li",
                        "occu": 1
                    }
                ],
                "abc": [
                    0.83141338,
                    0.95064868,
                    0.5
                ],
                "xyz": [
                    6.6848385901178355,
                    8.77798359310233,
                    1.73257639
                ],
                "label": "Li",
                "properties": {}
            },
            {
                "species": [
                    {
                        "element": "Li",
                        "occu": 1
                    }
                ],
                "abc": [
                    0.33141338,
                    0.54935132,
                    0.0
                ],
                "xyz": [
                    2.664673200117836,
                    5.0725330768976695,
                    0.0
                ],
                "label": "Li",
                "properties": {}
            },
            {
                "species": [
                    {
                        "element": "Li",
                        "occu": 1
                    }
                ],
                "abc": [
                    0.48670618,
                    0.69863856,
                    0.5
                ],
                "xyz": [
                    3.91327867987022,
                    6.451003347723198,
                    1.73257639
                ],
                "label": "Li",
                "properties": {}
            },
            {
                "species": [
                    {
                        "element": "Li",
                        "occu": 1
                    }
                ],
                "abc": [
                    0.01329382,
                    0.19863856,
                    0.0
                ],
                "xyz": [
                    0.10688671012977959,
                    1.8341644577231968,
                    0.0
                ],
                "label": "Li",
                "properties": {}
            },
            {
                "species": [
                    {
                        "element": "Li",
                        "occu": 1
                    }
                ],
                "abc": [
                    0.51329382,
                    0.30136144,
                    0.5
                ],
                "xyz": [
                    4.12705210012978,
                    2.7826744322768033,
                    1.73257639
                ],
                "label": "Li",
                "properties": {}
            },
            {
                "species": [
                    {
                        "element": "Li",
                        "occu": 1
                    }
                ],
                "abc": [
                    0.66858662,
                    0.45064868,
                    0.0
                ],
                "xyz": [
                    5.375657579882164,
                    4.161144703102331,
                    0.0
                ],
                "label": "Li",
                "properties": {}
            },
            {
                "species": [
                    {
                        "element": "Li",
                        "occu": 1
                    }
                ],
                "abc": [
                    0.16858662,
                    0.04935132,
                    0.5
                ],
                "xyz": [
                    1.3554921898821635,
                    0.4556941868976696,
                    1.73257639
                ],
                "label": "Li",
                "properties": {}
            },
            {
                "species": [
                    {
                        "element": "Li",
                        "occu": 1
                    }
                ],
                "abc": [
                    0.98670618,
                    0.80136144,
                    0.0
                ],
                "xyz": [
                    7.9334440698702196,
                    7.399513322276803,
                    0.0
                ],
                "label": "Li",
                "properties": {}
            },
            {
                "species": [
                    {
                        "element": "Ca",
                        "occu": 1
                    }
                ],
                "abc": [
                    0.5,
                    0.0,
                    0.0
                ],
                "xyz": [
                    4.02016539,
                    0.0,
                    0.0
                ],
                "label": "Ca",
                "properties": {}
            },
            {
                "species": [
                    {
                        "element": "Ca",
                        "occu": 1
                    }
                ],
                "abc": [
                    0.0,
                    0.5,
                    0.5
                ],
                "xyz": [
                    0.0,
                    4.61683889,
                    1.73257639
                ],
                "label": "Ca",
                "properties": {}
            },
            {
                "species": [
                    {
                        "element": "B",
                        "occu": 1
                    }
                ],
                "abc": [
                    0.77262598,
                    0.20863504,
                    0.5
                ],
                "xyz": [
                    6.212168448421664,
                    1.9264687329774113,
                    1.73257639
                ],
                "label": "B",
                "properties": {}
            },
            {
                "species": [
                    {
                        "element": "B",
                        "occu": 1
                    }
                ],
                "abc": [
                    0.72737402,
                    0.70863504,
                    0.0
                ],
                "xyz": [
                    5.848327721578335,
                    6.543307622977411,
                    0.0
                ],
                "label": "B",
                "properties": {}
            },
            {
                "species": [
                    {
                        "element": "B",
                        "occu": 1
                    }
                ],
                "abc": [
                    0.22737402,
                    0.79136496,
                    0.5
                ],
                "xyz": [
                    1.8281623315783355,
                    7.30720904702259,
                    1.73257639
                ],
                "label": "B",
                "properties": {}
            },
            {
                "species": [
                    {
                        "element": "B",
                        "occu": 1
                    }
                ],
                "abc": [
                    0.27262598,
                    0.29136496,
                    0.0
                ],
                "xyz": [
                    2.192003058421664,
                    2.690370157022589,
                    0.0
                ],
                "label": "B",
                "properties": {}
            },
            {
                "species": [
                    {
                        "element": "O",
                        "occu": 1
                    }
                ],
                "abc": [
                    0.57037325,
                    0.64799885,
                    0.0
                ],
                "xyz": [
                    4.585989598063636,
                    5.983412582710554,
                    0.0
                ],
                "label": "O",
                "properties": {}
            },
            {
                "species": [
                    {
                        "element": "O",
                        "occu": 1
                    }
                ],
                "abc": [
                    0.24841223,
                    0.14226217,
                    0.0
                ],
                "xyz": [
                    1.9973164989974395,
                    1.3136030380635826,
                    0.0
                ],
                "label": "O",
                "properties": {}
            },
            {
                "species": [
                    {
                        "element": "O",
                        "occu": 1
                    }
                ],
                "abc": [
                    0.36599696,
                    0.88222342,
                    0.5
                ],
                "xyz": [
                    2.9427366228744285,
                    8.146166790249609,
                    1.73257639
                ],
                "label": "O",
                "properties": {}
            },
            {
                "species": [
                    {
                        "element": "O",
                        "occu": 1
                    }
                ],
                "abc": [
                    0.74841223,
                    0.35773783,
                    0.5
                ],
                "xyz": [
                    6.017481888997439,
                    3.3032358519364173,
                    1.73257639
                ],
                "label": "O",
                "properties": {}
            },
            {
                "species": [
                    {
                        "element": "O",
                        "occu": 1
                    }
                ],
                "abc": [
                    0.25158777,
                    0.64226217,
                    0.5
                ],
                "xyz": [
                    2.0228488910025604,
                    5.9304419280635825,
                    1.73257639
                ],
                "label": "O",
                "properties": {}
            },
            {
                "species": [
                    {
                        "element": "O",
                        "occu": 1
                    }
                ],
                "abc": [
                    0.86599696,
                    0.61777658,
                    0.0
                ],
                "xyz": [
                    6.962902012874429,
                    5.704349879750393,
                    0.0
                ],
                "label": "O",
                "properties": {}
            },
            {
                "species": [
                    {
                        "element": "O",
                        "occu": 1
                    }
                ],
                "abc": [
                    0.13400304,
                    0.38222342,
                    0.0
                ],
                "xyz": [
                    1.0774287671255711,
                    3.5293279002496076,
                    0.0
                ],
                "label": "O",
                "properties": {}
            },
            {
                "species": [
                    {
                        "element": "O",
                        "occu": 1
                    }
                ],
                "abc": [
                    0.92962675,
                    0.14799885,
                    0.5
                ],
                "xyz": [
                    7.474506571936364,
                    1.366573692710553,
                    1.73257639
                ],
                "label": "O",
                "properties": {}
            },
            {
                "species": [
                    {
                        "element": "O",
                        "occu": 1
                    }
                ],
                "abc": [
                    0.75158777,
                    0.85773783,
                    0.0
                ],
                "xyz": [
                    6.04301428100256,
                    7.920074741936419,
                    0.0
                ],
                "label": "O",
                "properties": {}
            },
            {
                "species": [
                    {
                        "element": "O",
                        "occu": 1
                    }
                ],
                "abc": [
                    0.07037325,
                    0.85200115,
                    0.5
                ],
                "xyz": [
                    0.565824208063635,
                    7.867104087289447,
                    1.73257639
                ],
                "label": "O",
                "properties": {}
            },
            {
                "species": [
                    {
                        "element": "O",
                        "occu": 1
                    }
                ],
                "abc": [
                    0.42962675,
                    0.35200115,
                    0.0
                ],
                "xyz": [
                    3.454341181936365,
                    3.250265197289447,
                    0.0
                ],
                "label": "O",
                "properties": {}
            },
            {
                "species": [
                    {
                        "element": "O",
                        "occu": 1
                    }
                ],
                "abc": [
                    0.63400304,
                    0.11777658,
                    0.5
                ],
                "xyz": [
                    5.09759415712557,
                    1.0875109897503925,
                    1.73257639
                ],
                "label": "O",
                "properties": {}
            }
        ]
    },
    "spacegroup": {
        "source": "spglib",
        "symbol": "Pnnm",
        "number": 58,
        "point_group": "mmm",
        "crystal_system": "orthorhombic",
        "hall": "-P 2 2n"
    },
    "dielectric": {
        "epsilon_ionic": [
            [
                7.7798778,
                0.0,
                0.0
            ],
            [
                0.0,
                8.66443499,
                -1e-08
            ],
            [
                0.0,
                -1e-08,
                3.29508074
            ]
        ],
        "epsilon_ionic_avg": 6.579797843333334,
        "epsilon_ionic_eig": [
            3.2950807399999995,
            8.66443499,
            7.7798778
        ],
        "epsilon_electronic": [
            [
                2.89027822,
                0.0,
                0.0
            ],
            [
                -0.0,
                2.82078656,
                0.0
            ],
            [
                0.0,
                0.0,
                2.54457981
            ]
        ],
        "epsilon_electronic_avg": 2.75188153,
        "epsilon_electronic_eig": [
            2.89027822,
            2.82078656,
            2.54457981
        ]
    },
    "phonon": {
        "lowest_freq": -0.10295046641805591,
        "frequency": [
            -0.10295046641805591,
            -0.08194628715575862,
            -0.0676877125950789,
            2.8259999133125806,
            3.0714660115532895,
            3.741752245078739,
            3.768284437823161,
            4.064112772891895,
            4.175161341753331,
            4.573663074750087,
            5.351371598431084,
            5.49103339235658,
            5.740857959022217,
            6.258621135248088,
            6.315454262652407,
            6.354098989670925,
            6.3660786750463245,
            6.478369745797776,
            6.584773600170837,
            6.679082157943594,
            7.0537321416694745,
            7.230384648779652,
            7.346545002206081,
            8.029290008318917,
            8.356432243931215,
            8.550557576808034,
            8.840982371568668,
            9.045430874359432,
            9.109967985831823,
            9.197685464791379,
            9.278337737576472,
            9.287970149731523,
            10.051281697093287,
            10.638240891094743,
            10.800936775290623,
            11.059763285406042,
            11.19272900741746,
            11.298007301676375,
            11.394597824925425,
            12.01500928484363,
            12.57998346673931,
            12.647445079026884,
            12.757294219122656,
            13.357761241168042,
            13.47429114569727,
            14.255446979393115,
            15.510775795414451,
            15.694396224270712,
            15.697394879374786,
            15.741864235814774,
            15.766381082741134,
            15.931442454709126,
            15.959820944934657,
            16.481778442023888,
            17.323963180338552,
            17.385172256959592,
            17.666470734536617,
            17.6716575617796,
            18.258143779809423,
            18.448340913220175,
            18.59302178787046,
            18.740024360586087,
            21.521568661050313,
            21.528543555795164,
            21.529376974382384,
            21.548719478454633,
            27.01883770464781,
            27.034785360746692,
            27.163353803547395,
            27.24397548669121,
            35.96928038406385,
            36.028394232883116,
            36.224925395367464,
            37.88998979862721,
            38.50540711860929,
            39.16731135827392,
            39.53907784233716,
            40.987144322416135
        ]
    },
    "born_effective_charge": {
        "avg_abs_trace": 1.5585,
        "tensors": [
            [
                [
                    1.0575,
                    -0.13706,
                    0.0
                ],
                [
                    -0.04542,
                    1.1571,
                    0.0
                ],
                [
                    4e-05,
                    5e-05,
                    0.94951
                ]
            ],
            [
                [
                    1.0575,
                    0.13706,
                    0.0
                ],
                [
                    0.04542,
                    1.15711,
                    0.0
                ],
                [
                    4e-05,
                    -5e-05,
                    0.94951
                ]
            ],
            [
                [
                    1.06475,
                    -0.06949,
                    0.0
                ],
                [
                    -0.0904,
                    0.8154,
                    0.0
                ],
                [
                    -5e-05,
                    6e-05,
                    0.98804
                ]
            ],
            [
                [
                    1.06474,
                    0.06948,
                    0.0
                ],
                [
                    0.0904,
                    0.8154,
                    0.0
                ],
                [
                    5e-05,
                    6e-05,
                    0.98804
                ]
            ],
            [
                [
                    1.06474,
                    -0.06948,
                    0.0
                ],
                [
                    -0.0904,
                    0.8154,
                    0.0
                ],
                [
                    5e-05,
                    -6e-05,
                    0.98804
                ]
            ],
            [
                [
                    1.05749,
                    0.13706,
                    0.0
                ],
                [
                    0.04542,
                    1.1571,
                    0.0
                ],
                [
                    -4e-05,
                    5e-05,
                    0.94951
                ]
            ],
            [
                [
                    1.05749,
                    -0.13706,
                    0.0
                ],
                [
                    -0.04542,
                    1.15711,
                    0.0
                ],
                [
                    -4e-05,
                    -5e-05,
                    0.94951
                ]
            ],
            [
                [
                    1.06475,
                    0.06949,
                    0.0
                ],
                [
                    0.0904,
                    0.8154,
                    0.0
                ],
                [
                    -5e-05,
                    -6e-05,
                    0.98804
                ]
            ],
            [
                [
                    2.38753,
                    0.06512,
                    0.0
                ],
                [
                    -0.09893,
                    2.39102,
                    0.0
                ],
                [
                    -0.0,
                    -0.0,
                    2.46967
                ]
            ],
            [
                [
                    2.38753,
                    -0.06512,
                    0.0
                ],
                [
                    0.09893,
                    2.39102,
                    0.0
                ],
                [
                    -0.0,
                    -0.0,
                    2.46967
                ]
            ],
            [
                [
                    2.60015,
                    0.19653,
                    0.0
                ],
                [
                    0.17066,
                    2.50109,
                    0.0
                ],
                [
                    1e-05,
                    -3e-05,
                    0.43771
                ]
            ],
            [
                [
                    2.60016,
                    -0.19651,
                    0.0
                ],
                [
                    -0.17066,
                    2.50109,
                    0.0
                ],
                [
                    -1e-05,
                    -3e-05,
                    0.43771
                ]
            ],
            [
                [
                    2.60016,
                    0.19651,
                    0.0
                ],
                [
                    0.17073,
                    2.50112,
                    0.0
                ],
                [
                    -1e-05,
                    3e-05,
                    0.43771
                ]
            ],
            [
                [
                    2.60015,
                    -0.19653,
                    0.0
                ],
                [
                    -0.17073,
                    2.50112,
                    0.0
                ],
                [
                    1e-05,
                    3e-05,
                    0.43771
                ]
            ],
            [
                [
                    -2.23592,
                    -0.33,
                    0.0
                ],
                [
                    -0.22066,
                    -1.47534,
                    0.0
                ],
                [
                    0.00016,
                    -8e-05,
                    -1.10052
                ]
            ],
            [
                [
                    -1.55726,
                    0.10316,
                    0.0
                ],
                [
                    0.06095,
                    -2.31454,
                    0.0
                ],
                [
                    4e-05,
                    3e-05,
                    -1.12801
                ]
            ],
            [
                [
                    -2.12305,
                    -0.63764,
                    0.0
                ],
                [
                    -0.60358,
                    -1.87916,
                    0.0
                ],
                [
                    -0.00015,
                    -0.00014,
                    -1.38156
                ]
            ],
            [
                [
                    -1.55726,
                    -0.10316,
                    0.0
                ],
                [
                    -0.06102,
                    -2.31445,
                    0.0
                ],
                [
                    4e-05,
                    -3e-05,
                    -1.12801
                ]
            ],
            [
                [
                    -1.55726,
                    -0.10343,
                    0.0
                ],
                [
                    -0.06095,
                    -2.31454,
                    0.0
                ],
                [
                    -4e-05,
                    3e-05,
                    -1.12801
                ]
            ],
            [
                [
                    -2.12305,
                    0.63764,
                    0.0
                ],
                [
                    0.60366,
                    -1.87931,
                    0.0
                ],
                [
                    -0.00015,
                    0.00014,
                    -1.38156
                ]
            ],
            [
                [
                    -2.12297,
                    0.63747,
                    0.0
                ],
                [
                    0.60358,
                    -1.87916,
                    0.0
                ],
                [
                    0.00015,
                    -0.00014,
                    -1.38156
                ]
            ],
            [
                [
                    -2.23587,
                    0.32991,
                    0.0
                ],
                [
                    0.22066,
                    -1.47534,
                    0.0
                ],
                [
                    -0.00016,
                    -8e-05,
                    -1.10052
                ]
            ],
            [
                [
                    -1.55726,
                    0.10343,
                    0.0
                ],
                [
                    0.06102,
                    -2.31445,
                    0.0
                ],
                [
                    -4e-05,
                    -3e-05,
                    -1.12801
                ]
            ],
            [
                [
                    -2.23592,
                    0.33,
                    0.0
                ],
                [
                    0.22096,
                    -1.47544,
                    0.0
                ],
                [
                    0.00016,
                    8e-05,
                    -1.10052
                ]
            ],
            [
                [
                    -2.23587,
                    -0.32991,
                    0.0
                ],
                [
                    -0.22096,
                    -1.47544,
                    0.0
                ],
                [
                    -0.00016,
                    8e-05,
                    -1.10052
                ]
            ],
            [
                [
                    -2.12297,
                    -0.63747,
                    0.0
                ],
                [
                    -0.60366,
                    -1.87931,
                    0.0
                ],
                [
                    0.00015,
                    0.00014,
                    -1.38156
                ]
            ]
        ]
    },
    "band_gap": 4.786700000000001,
    "is_direct": true,
    "formula": "Li4Ca(BO3)2"
}