{
    "mp_id": "mp-557584",
    "nelements": 4,
    "nsites": 34,
    "elements": [
        "Ba",
        "Ge",
        "K",
        "O"
    ],
    "structure": {
        "@module": "pymatgen.core.structure",
        "@class": "Structure",
        "charge": null,
        "lattice": {
            "matrix": [
                [
                    4.21766473,
                    -6.24006068,
                    -0.00082926
                ],
                [
                    4.21766473,
                    6.24006068,
                    -0.00082926
                ],
                [
                    -0.16143736,
                    0.0,
                    11.45414993
                ]
            ],
            "a": 7.531736436734903,
            "b": 7.531736436734903,
            "c": 11.455287540700267,
            "alpha": 90.45847836167147,
            "beta": 90.45847836167147,
            "gamma": 111.8903803493419,
            "volume": 602.9100489801137
        },
        "sites": [
            {
                "species": [
                    {
                        "element": "K",
                        "occu": 1
                    }
                ],
                "abc": [
                    0.84803777,
                    0.71097663,
                    0.74923236
                ],
                "xyz": [
                    6.454445954217143,
                    -0.8552698304699753,
                    8.580526955566391
                ],
                "label": "K",
                "properties": {}
            },
            {
                "species": [
                    {
                        "element": "K",
                        "occu": 1
                    }
                ],
                "abc": [
                    0.05176196,
                    0.94823804,
                    0.0
                ],
                "xyz": [
                    4.21766473,
                    5.594065137368534,
                    -0.00082926
                ],
                "label": "K",
                "properties": {}
            },
            {
                "species": [
                    {
                        "element": "K",
                        "occu": 1
                    }
                ],
                "abc": [
                    0.28902337,
                    0.15196223,
                    0.25076764
                ],
                "xyz": [
                    1.8194461457828575,
                    -0.8552698304699752,
                    2.871964454433609
                ],
                "label": "K",
                "properties": {}
            },
            {
                "species": [
                    {
                        "element": "K",
                        "occu": 1
                    }
                ],
                "abc": [
                    0.56925571,
                    0.43074429,
                    0.0
                ],
                "xyz": [
                    4.21766473,
                    -0.8643196656729653,
                    -0.0008292599999999998
                ],
                "label": "K",
                "properties": {}
            },
            {
                "species": [
                    {
                        "element": "K",
                        "occu": 1
                    }
                ],
                "abc": [
                    0.59597193,
                    0.40402807,
                    0.5
                ],
                "xyz": [
                    4.13694605,
                    -1.197741333553425,
                    5.726245705
                ],
                "label": "K",
                "properties": {}
            },
            {
                "species": [
                    {
                        "element": "K",
                        "occu": 1
                    }
                ],
                "abc": [
                    0.42509491,
                    0.68563853,
                    0.25552246
                ],
                "xyz": [
                    4.643450382956465,
                    1.6258079985868612,
                    2.9258714805099735
                ],
                "label": "K",
                "properties": {}
            },
            {
                "species": [
                    {
                        "element": "K",
                        "occu": 1
                    }
                ],
                "abc": [
                    0.99090419,
                    0.00909581,
                    0.5
                ],
                "xyz": [
                    4.136946049999999,
                    -6.126543867332498,
                    5.726245705
                ],
                "label": "K",
                "properties": {}
            },
            {
                "species": [
                    {
                        "element": "K",
                        "occu": 1
                    }
                ],
                "abc": [
                    0.31436147,
                    0.57490509,
                    0.74447754
                ],
                "xyz": [
                    3.6304417170435346,
                    1.6258079985868616,
                    8.526619929490026
                ],
                "label": "K",
                "properties": {}
            },
            {
                "species": [
                    {
                        "element": "Ba",
                        "occu": 1
                    }
                ],
                "abc": [
                    0.79808164,
                    0.18055548,
                    0.22525832
                ],
                "xyz": [
                    4.091198155993943,
                    -3.8534007098873895,
                    2.5793310256417867
                ],
                "label": "Ba",
                "properties": {}
            },
            {
                "species": [
                    {
                        "element": "Ba",
                        "occu": 1
                    }
                ],
                "abc": [
                    0.81944452,
                    0.20191836,
                    0.77474168
                ],
                "xyz": [
                    4.182693944006058,
                    -3.853400709887389,
                    8.873160384358213
                ],
                "label": "Ba",
                "properties": {}
            },
            {
                "species": [
                    {
                        "element": "Ge",
                        "occu": 1
                    }
                ],
                "abc": [
                    0.3326291,
                    0.10847215,
                    0.74076206
                ],
                "xyz": [
                    1.7408305131293509,
                    -1.3987529698437262,
                    8.48443391007308
                ],
                "label": "Ge",
                "properties": {}
            },
            {
                "species": [
                    {
                        "element": "Ge",
                        "occu": 1
                    }
                ],
                "abc": [
                    0.89152785,
                    0.6673709,
                    0.25923794
                ],
                "xyz": [
                    6.533061586870649,
                    -1.3987529698437262,
                    2.968057499926919
                ],
                "label": "Ge",
                "properties": {}
            },
            {
                "species": [
                    {
                        "element": "Ge",
                        "occu": 1
                    }
                ],
                "abc": [
                    0.09023481,
                    0.51493471,
                    0.47617082
                ],
                "xyz": [
                    2.4755303800851944,
                    2.650153146789932,
                    5.4536301216948875
                ],
                "label": "Ge",
                "properties": {}
            },
            {
                "species": [
                    {
                        "element": "Ge",
                        "occu": 1
                    }
                ],
                "abc": [
                    0.4903838,
                    0.89720314,
                    0.96550414
                ],
                "xyz": [
                    5.696508057215956,
                    2.538577367397551,
                    11.057878507249844
                ],
                "label": "Ge",
                "properties": {}
            },
            {
                "species": [
                    {
                        "element": "Ge",
                        "occu": 1
                    }
                ],
                "abc": [
                    0.48506529,
                    0.90976519,
                    0.52382918
                ],
                "xyz": [
                    5.798361719914806,
                    2.650153146789932,
                    5.998861288305112
                ],
                "label": "Ge",
                "properties": {}
            },
            {
                "species": [
                    {
                        "element": "Ge",
                        "occu": 1
                    }
                ],
                "abc": [
                    0.10279686,
                    0.5096162,
                    0.03449586
                ],
                "xyz": [
                    2.577384042784044,
                    2.538577367397551,
                    0.39461290275015426
                ],
                "label": "Ge",
                "properties": {}
            },
            {
                "species": [
                    {
                        "element": "O",
                        "occu": 1
                    }
                ],
                "abc": [
                    0.34751697,
                    0.65248303,
                    0.5
                ],
                "xyz": [
                    4.136946049999999,
                    1.9030067197405205,
                    5.726245705
                ],
                "label": "O",
                "properties": {}
            },
            {
                "species": [
                    {
                        "element": "O",
                        "occu": 1
                    }
                ],
                "abc": [
                    0.89553783,
                    0.89794342,
                    0.23911709
                ],
                "xyz": [
                    7.52570018030083,
                    0.015011027571201652,
                    2.737395737423929
                ],
                "label": "O",
                "properties": {}
            },
            {
                "species": [
                    {
                        "element": "O",
                        "occu": 1
                    }
                ],
                "abc": [
                    0.10205658,
                    0.10446217,
                    0.76088291
                ],
                "xyz": [
                    0.7481919196991699,
                    0.015011027571201208,
                    8.715095672576071
                ],
                "label": "O",
                "properties": {}
            },
            {
                "species": [
                    {
                        "element": "O",
                        "occu": 1
                    }
                ],
                "abc": [
                    0.32636357,
                    0.01329361,
                    0.59259706
                ],
                "xyz": [
                    1.3368928034671,
                    -1.9535755474851728,
                    6.787413909204119
                ],
                "label": "O",
                "properties": {}
            },
            {
                "species": [
                    {
                        "element": "O",
                        "occu": 1
                    }
                ],
                "abc": [
                    0.35372636,
                    0.64627364,
                    0.0
                ],
                "xyz": [
                    4.21766473,
                    1.8255127789689505,
                    -0.0008292599999999998
                ],
                "label": "O",
                "properties": {}
            },
            {
                "species": [
                    {
                        "element": "O",
                        "occu": 1
                    }
                ],
                "abc": [
                    0.94490981,
                    0.51349087,
                    0.9219841
                ],
                "xyz": [
                    6.00220243117804,
                    -2.6920803641012783,
                    10.559334721128215
                ],
                "label": "O",
                "properties": {}
            },
            {
                "species": [
                    {
                        "element": "O",
                        "occu": 1
                    }
                ],
                "abc": [
                    0.07433705,
                    0.64493852,
                    0.16284449
                ],
                "xyz": [
                    3.0073740181834996,
                    3.5605877968971997,
                    1.8646487372752076
                ],
                "label": "O",
                "properties": {}
            },
            {
                "species": [
                    {
                        "element": "O",
                        "occu": 1
                    }
                ],
                "abc": [
                    0.98670639,
                    0.67363643,
                    0.40740294
                ],
                "xyz": [
                    6.936999296532901,
                    -1.9535755474851735,
                    4.665077500795881
                ],
                "label": "O",
                "properties": {}
            },
            {
                "species": [
                    {
                        "element": "O",
                        "occu": 1
                    }
                ],
                "abc": [
                    0.35506148,
                    0.92566295,
                    0.83715551
                ],
                "xyz": [
                    5.266518081816501,
                    3.5605877968971997,
                    9.587842672724792
                ],
                "label": "O",
                "properties": {}
            },
            {
                "species": [
                    {
                        "element": "O",
                        "occu": 1
                    }
                ],
                "abc": [
                    0.10452747,
                    0.29042081,
                    0.08223641
                ],
                "xyz": [
                    1.6524834018038868,
                    1.159985721607871,
                    0.9416206550342784
                ],
                "label": "O",
                "properties": {}
            },
            {
                "species": [
                    {
                        "element": "O",
                        "occu": 1
                    }
                ],
                "abc": [
                    0.66827425,
                    0.47518713,
                    0.24636196
                ],
                "xyz": [
                    4.782964708116301,
                    -1.2048753453264411,
                    2.820918600104684
                ],
                "label": "O",
                "properties": {}
            },
            {
                "species": [
                    {
                        "element": "O",
                        "occu": 1
                    }
                ],
                "abc": [
                    0.66903786,
                    0.91209153,
                    0.61925423
                ],
                "xyz": [
                    6.568702893709382,
                    1.5166696492966958,
                    7.091719627848752
                ],
                "label": "O",
                "properties": {}
            },
            {
                "species": [
                    {
                        "element": "O",
                        "occu": 1
                    }
                ],
                "abc": [
                    0.08790847,
                    0.33096214,
                    0.38074577
                ],
                "xyz": [
                    1.705189206290618,
                    1.5166696492966956,
                    4.3607717821512475
                ],
                "label": "O",
                "properties": {}
            },
            {
                "species": [
                    {
                        "element": "O",
                        "occu": 1
                    }
                ],
                "abc": [
                    0.97302401,
                    0.45916745,
                    0.61100941
                ],
                "xyz": [
                    5.941863661363649,
                    -3.206496115216061,
                    6.997405731690722
                ],
                "label": "O",
                "properties": {}
            },
            {
                "species": [
                    {
                        "element": "O",
                        "occu": 1
                    }
                ],
                "abc": [
                    0.48650913,
                    0.05509019,
                    0.0780159
                ],
                "xyz": [
                    2.2716896688219594,
                    -2.692080364101279,
                    0.8931566888717838
                ],
                "label": "O",
                "properties": {}
            },
            {
                "species": [
                    {
                        "element": "O",
                        "occu": 1
                    }
                ],
                "abc": [
                    0.70957919,
                    0.89547253,
                    0.91776359
                ],
                "xyz": [
                    6.621408698196114,
                    1.159985721607872,
                    10.51087075496572
                ],
                "label": "O",
                "properties": {}
            },
            {
                "species": [
                    {
                        "element": "O",
                        "occu": 1
                    }
                ],
                "abc": [
                    0.54083255,
                    0.02697599,
                    0.38899059
                ],
                "xyz": [
                    2.3320284386363515,
                    -3.2064961152160607,
                    4.4550856783092785
                ],
                "label": "O",
                "properties": {}
            },
            {
                "species": [
                    {
                        "element": "O",
                        "occu": 1
                    }
                ],
                "abc": [
                    0.52481287,
                    0.33172575,
                    0.75363804
                ],
                "xyz": [
                    3.490927391883698,
                    -1.2048753453264416,
                    8.631572809895316
                ],
                "label": "O",
                "properties": {}
            }
        ]
    },
    "spacegroup": {
        "source": "spglib",
        "symbol": "C2",
        "number": 5,
        "point_group": "2",
        "crystal_system": "monoclinic",
        "hall": "C 2y"
    },
    "dielectric": {
        "epsilon_ionic": [
            [
                11.14311801,
                5.95e-05,
                -1.30701122
            ],
            [
                5.95e-05,
                6.13514149,
                8.437e-05
            ],
            [
                -1.30701122,
                8.437e-05,
                7.09386834
            ]
        ],
        "epsilon_ionic_avg": 8.124042613333335,
        "epsilon_ionic_eig": [
            11.52834463363617,
            6.708641733229264,
            6.135141473134572
        ],
        "epsilon_electronic": [
            [
                2.98421606,
                0.0,
                -0.02452619
            ],
            [
                0.0,
                2.93327905,
                0.0
            ],
            [
                -0.02452651,
                0.0,
                2.97106282
            ]
        ],
        "epsilon_electronic_avg": 2.962852643333333,
        "epsilon_electronic_eig": [
            3.0030322298215477,
            2.9522466501784526,
            2.93327905
        ]
    },
    "phonon": {
        "lowest_freq": -0.07449484296920414,
        "frequency": [
            -0.07449484296920414,
            -0.07120601763313714,
            -0.03833300215738731,
            1.1755651248045111,
            1.3418857835112827,
            1.4329055330555465,
            1.6485401685497238,
            1.7281009744179618,
            1.8677909138378876,
            1.9940006931259033,
            2.1959022089803346,
            2.25325551405547,
            2.284228416046554,
            2.2984409278069524,
            2.4351332983961806,
            2.4714795562934415,
            2.6340474224235146,
            2.6391752981029177,
            2.752733932470111,
            2.7659922898515523,
            2.7895243994233736,
            2.854077101789906,
            2.9712751705094362,
            3.031929606881982,
            3.075181957206652,
            3.223414605791877,
            3.242153704250331,
            3.3449466333576074,
            3.3858953678549213,
            3.409692949076736,
            3.451468745545246,
            3.53367837916097,
            3.6886646371002687,
            3.7760329695932158,
            3.810552779579596,
            3.8982153206857375,
            4.107688316382644,
            4.165878632077007,
            4.195698985708836,
            4.24952033412923,
            4.395147422330088,
            4.443135170039865,
            4.539870603416568,
            4.602487771916831,
            4.760984376572682,
            4.862653496561966,
            4.987153156426314,
            5.152746536883871,
            5.188445027701719,
            5.5939955804162125,
            5.8475267442891345,
            5.905697482196721,
            6.238056887491778,
            6.30472404779428,
            6.424789746933529,
            6.6744485683304235,
            7.264257471739557,
            7.345854056621343,
            7.56975421552202,
            7.733364231909102,
            7.757507491951593,
            7.930745475852176,
            8.00967569394175,
            8.144274091097524,
            8.17982125676096,
            8.252480237370632,
            8.285232138851272,
            8.759984536000463,
            8.82625884459035,
            9.075485418360577,
            9.597200939681656,
            9.618319045240597,
            9.746588344345804,
            9.946945449891185,
            10.13132652804386,
            10.203317382785082,
            10.621575888823772,
            10.660871358803403,
            12.637800216456254,
            12.774629536220035,
            13.41650724511596,
            14.328734080775224,
            14.656237292174895,
            15.277197726053336,
            21.277374522818114,
            21.437161419984,
            21.556372154481682,
            21.67038091286372,
            21.807611122748362,
            21.880043987767657,
            22.73688578359354,
            22.870899759801212,
            23.026659560239306,
            23.063319331608536,
            23.274050301797644,
            23.753172693827796,
            23.848409845534952,
            24.094425018311732,
            24.11878462979831,
            24.61440741685098,
            24.93161674103917,
            24.941741585574988
        ]
    },
    "born_effective_charge": {
        "avg_abs_trace": 1.93740362745098,
        "tensors": [
            [
                [
                    1.21536,
                    0.03435,
                    -0.00194
                ],
                [
                    0.11207,
                    1.39745,
                    0.00367
                ],
                [
                    0.00066,
                    -0.03031,
                    1.1704
                ]
            ],
            [
                [
                    1.13658,
                    -1e-05,
                    -0.02084
                ],
                [
                    -0.0,
                    1.30106,
                    0.0
                ],
                [
                    -0.06552,
                    4e-05,
                    1.1344
                ]
            ],
            [
                [
                    1.21538,
                    -0.03434,
                    -0.00196
                ],
                [
                    -0.11207,
                    1.39745,
                    -0.00367
                ],
                [
                    0.00067,
                    0.03036,
                    1.1704
                ]
            ],
            [
                [
                    1.10326,
                    1e-05,
                    0.08152
                ],
                [
                    -0.0,
                    1.34873,
                    0.0
                ],
                [
                    0.05358,
                    2e-05,
                    1.12747
                ]
            ],
            [
                [
                    1.16311,
                    0.0,
                    -0.14168
                ],
                [
                    -0.0,
                    1.22059,
                    0.0
                ],
                [
                    -0.13094,
                    4e-05,
                    1.16309
                ]
            ],
            [
                [
                    1.15504,
                    -0.13003,
                    0.03345
                ],
                [
                    -0.13095,
                    1.13889,
                    -0.00915
                ],
                [
                    0.03729,
                    0.00195,
                    1.20645
                ]
            ],
            [
                [
                    1.1062,
                    8e-05,
                    0.02848
                ],
                [
                    -0.0,
                    1.26588,
                    0.0
                ],
                [
                    0.05548,
                    1e-05,
                    1.11349
                ]
            ],
            [
                [
                    1.15504,
                    0.13005,
                    0.03347
                ],
                [
                    0.13095,
                    1.13889,
                    0.00915
                ],
                [
                    0.0373,
                    -0.0019,
                    1.20642
                ]
            ],
            [
                [
                    2.79082,
                    0.05684,
                    -0.05916
                ],
                [
                    0.17435,
                    2.66935,
                    -0.02053
                ],
                [
                    -0.06247,
                    -0.02192,
                    2.60616
                ]
            ],
            [
                [
                    2.79063,
                    -0.05689,
                    -0.05916
                ],
                [
                    -0.17435,
                    2.66935,
                    0.02053
                ],
                [
                    -0.06243,
                    0.02188,
                    2.60622
                ]
            ],
            [
                [
                    2.77466,
                    -0.22402,
                    0.01378
                ],
                [
                    -0.16066,
                    3.19411,
                    0.25614
                ],
                [
                    -0.12641,
                    -0.25442,
                    3.10841
                ]
            ],
            [
                [
                    2.77471,
                    0.22391,
                    0.01353
                ],
                [
                    0.16066,
                    3.19411,
                    -0.25614
                ],
                [
                    -0.12633,
                    0.25435,
                    3.10828
                ]
            ],
            [
                [
                    3.20195,
                    -0.31708,
                    0.02505
                ],
                [
                    0.17785,
                    2.58437,
                    0.00045
                ],
                [
                    0.06872,
                    -0.35267,
                    3.1438
                ]
            ],
            [
                [
                    3.18933,
                    0.33195,
                    -0.15354
                ],
                [
                    -0.33165,
                    2.58017,
                    -0.1805
                ],
                [
                    -0.03859,
                    -0.08312,
                    3.18545
                ]
            ],
            [
                [
                    3.20184,
                    0.31746,
                    0.02515
                ],
                [
                    -0.17785,
                    2.58437,
                    -0.00045
                ],
                [
                    0.06857,
                    0.35302,
                    3.14388
                ]
            ],
            [
                [
                    3.18901,
                    -0.33207,
                    -0.15382
                ],
                [
                    0.33165,
                    2.58017,
                    0.1805
                ],
                [
                    -0.03892,
                    0.08315,
                    3.18543
                ]
            ],
            [
                [
                    -3.16394,
                    -4e-05,
                    -0.25692
                ],
                [
                    -0.0,
                    -1.1914,
                    0.0
                ],
                [
                    -0.42741,
                    -0.00011,
                    -1.35068
                ]
            ],
            [
                [
                    -1.69028,
                    -0.6647,
                    0.0934
                ],
                [
                    -0.72841,
                    -2.62748,
                    0.19085
                ],
                [
                    0.08385,
                    0.05529,
                    -1.3602
                ]
            ],
            [
                [
                    -1.69028,
                    0.66463,
                    0.09336
                ],
                [
                    0.72841,
                    -2.62748,
                    -0.19085
                ],
                [
                    0.08388,
                    -0.05531,
                    -1.36032
                ]
            ],
            [
                [
                    -1.18088,
                    0.04853,
                    -0.12393
                ],
                [
                    0.08306,
                    -2.0302,
                    -0.79198
                ],
                [
                    -0.17065,
                    -0.87279,
                    -2.31707
                ]
            ],
            [
                [
                    -3.0648,
                    -0.00011,
                    0.4419
                ],
                [
                    0.0,
                    -1.29963,
                    0.0
                ],
                [
                    0.62956,
                    -0.00016,
                    -1.38568
                ]
            ],
            [
                [
                    -1.69514,
                    0.12345,
                    -0.44791
                ],
                [
                    -0.02359,
                    -1.53028,
                    0.16988
                ],
                [
                    -0.42816,
                    0.26778,
                    -2.07024
                ]
            ],
            [
                [
                    -1.29886,
                    0.1146,
                    0.12549
                ],
                [
                    0.05981,
                    -2.02657,
                    -0.94912
                ],
                [
                    0.15663,
                    -1.05361,
                    -2.41059
                ]
            ],
            [
                [
                    -1.18083,
                    -0.04844,
                    -0.12393
                ],
                [
                    -0.08306,
                    -2.0302,
                    0.79198
                ],
                [
                    -0.17073,
                    0.87281,
                    -2.31704
                ]
            ],
            [
                [
                    -1.2988,
                    -0.11459,
                    0.12556
                ],
                [
                    -0.05981,
                    -2.02657,
                    0.94912
                ],
                [
                    0.15684,
                    1.05375,
                    -2.41065
                ]
            ],
            [
                [
                    -1.85977,
                    -0.26166,
                    0.34571
                ],
                [
                    -0.36576,
                    -1.90348,
                    0.14247
                ],
                [
                    0.32251,
                    0.03913,
                    -1.60225
                ]
            ],
            [
                [
                    -2.15209,
                    -0.09805,
                    -0.07872
                ],
                [
                    -0.02515,
                    -1.81288,
                    0.01396
                ],
                [
                    -0.05263,
                    -0.02509,
                    -1.35628
                ]
            ],
            [
                [
                    -1.80008,
                    0.2002,
                    -0.45368
                ],
                [
                    0.28996,
                    -1.65575,
                    0.27097
                ],
                [
                    -0.4017,
                    0.14955,
                    -1.83404
                ]
            ],
            [
                [
                    -1.80039,
                    -0.20069,
                    -0.45407
                ],
                [
                    -0.28996,
                    -1.65575,
                    -0.27097
                ],
                [
                    -0.40199,
                    -0.1501,
                    -1.8344
                ]
            ],
            [
                [
                    -1.78977,
                    0.10001,
                    0.61593
                ],
                [
                    -0.0419,
                    -1.30029,
                    0.053
                ],
                [
                    0.55408,
                    -0.03819,
                    -2.37033
                ]
            ],
            [
                [
                    -1.69508,
                    -0.12357,
                    -0.44799
                ],
                [
                    0.02359,
                    -1.53028,
                    -0.16988
                ],
                [
                    -0.42855,
                    -0.26831,
                    -2.07078
                ]
            ],
            [
                [
                    -1.85995,
                    0.26218,
                    0.34605
                ],
                [
                    0.36576,
                    -1.90348,
                    -0.14247
                ],
                [
                    0.32214,
                    -0.03863,
                    -1.60215
                ]
            ],
            [
                [
                    -1.79012,
                    -0.10003,
                    0.61619
                ],
                [
                    0.0419,
                    -1.30029,
                    -0.053
                ],
                [
                    0.55429,
                    0.03844,
                    -2.37071
                ]
            ],
            [
                [
                    -2.15186,
                    0.09803,
                    -0.07876
                ],
                [
                    0.02515,
                    -1.81288,
                    -0.01396
                ],
                [
                    -0.0526,
                    0.02507,
                    -1.35634
                ]
            ]
        ]
    },
    "band_gap": 3.128,
    "is_direct": false,
    "formula": "K4Ba(GeO3)3"
}