{
    "mp_id": "mp-541037",
    "nelements": 3,
    "nsites": 6,
    "elements": [
        "Cs",
        "Cu",
        "O"
    ],
    "structure": {
        "@module": "pymatgen.core.structure",
        "@class": "Structure",
        "charge": null,
        "lattice": {
            "matrix": [
                [
                    2.94279054,
                    -5.2064683,
                    0.0
                ],
                [
                    2.94279054,
                    5.2064683,
                    0.0
                ],
                [
                    0.0,
                    0.0,
                    4.93217636
                ]
            ],
            "a": 5.980579263016115,
            "b": 5.980579263016115,
            "c": 4.93217636,
            "alpha": 90.0,
            "beta": 90.0,
            "gamma": 121.04815344383684,
            "volume": 151.13713060631724
        },
        "sites": [
            {
                "species": [
                    {
                        "element": "Cs",
                        "occu": 1
                    }
                ],
                "abc": [
                    0.31047389,
                    0.68952611,
                    0.25
                ],
                "xyz": [
                    2.94279054,
                    1.9735233674746262,
                    1.23304409
                ],
                "label": "Cs",
                "properties": {}
            },
            {
                "species": [
                    {
                        "element": "Cs",
                        "occu": 1
                    }
                ],
                "abc": [
                    0.68952611,
                    0.31047389,
                    0.75
                ],
                "xyz": [
                    2.94279054,
                    -1.9735233674746262,
                    3.69913227
                ],
                "label": "Cs",
                "properties": {}
            },
            {
                "species": [
                    {
                        "element": "Cu",
                        "occu": 1
                    }
                ],
                "abc": [
                    0.0,
                    0.0,
                    0.5
                ],
                "xyz": [
                    0.0,
                    0.0,
                    2.46608818
                ],
                "label": "Cu",
                "properties": {}
            },
            {
                "species": [
                    {
                        "element": "Cu",
                        "occu": 1
                    }
                ],
                "abc": [
                    0.0,
                    0.0,
                    0.0
                ],
                "xyz": [
                    0.0,
                    0.0,
                    0.0
                ],
                "label": "Cu",
                "properties": {}
            },
            {
                "species": [
                    {
                        "element": "O",
                        "occu": 1
                    }
                ],
                "abc": [
                    0.87333433,
                    0.12666567,
                    0.25
                ],
                "xyz": [
                    2.94279054,
                    -3.8875067088934783,
                    1.23304409
                ],
                "label": "O",
                "properties": {}
            },
            {
                "species": [
                    {
                        "element": "O",
                        "occu": 1
                    }
                ],
                "abc": [
                    0.12666567,
                    0.87333433,
                    0.75
                ],
                "xyz": [
                    2.94279054,
                    3.8875067088934783,
                    3.69913227
                ],
                "label": "O",
                "properties": {}
            }
        ]
    },
    "spacegroup": {
        "source": "spglib",
        "symbol": "Cmcm",
        "number": 63,
        "point_group": "mmm",
        "crystal_system": "orthorhombic",
        "hall": "-C 2c 2"
    },
    "dielectric": {
        "epsilon_ionic": [
            [
                3.23907854,
                -6e-08,
                -2e-07
            ],
            [
                -6e-08,
                2.47172164,
                5e-08
            ],
            [
                -2e-07,
                5e-08,
                7.56419895
            ]
        ],
        "epsilon_ionic_avg": 4.424999709999998,
        "epsilon_ionic_eig": [
            3.239078539999995,
            7.564198950000004,
            2.4717216399999953
        ],
        "epsilon_electronic": [
            [
                3.14444801,
                0.0,
                0.0
            ],
            [
                0.0,
                3.32411203,
                0.0
            ],
            [
                0.0,
                0.0,
                4.47077465
            ]
        ],
        "epsilon_electronic_avg": 3.6464448966666665,
        "epsilon_electronic_eig": [
            3.14444801,
            3.32411203,
            4.47077465
        ]
    },
    "phonon": {
        "lowest_freq": -0.12572258429118885,
        "frequency": [
            -0.12572258429118885,
            -0.12307309100931736,
            -0.07901181135441455,
            1.5721413120607572,
            1.6260241073964383,
            2.0172648208917745,
            2.2848382681172272,
            2.791508495522245,
            2.8717564354165015,
            3.6890087271730803,
            4.072485061076934,
            4.583887726714334,
            7.214956266940483,
            7.652232364410611,
            14.197175358215784,
            16.01742356026317,
            16.894022326571086,
            18.57727681231878
        ]
    },
    "born_effective_charge": {
        "avg_abs_trace": 1.0421855555555555,
        "tensors": [
            [
                [
                    1.5576,
                    0.00036,
                    0.0
                ],
                [
                    0.0,
                    1.2458,
                    0.0
                ],
                [
                    0.0,
                    -0.00053,
                    1.15275
                ]
            ],
            [
                [
                    1.5576,
                    -0.00036,
                    0.0
                ],
                [
                    0.0,
                    1.24605,
                    0.0
                ],
                [
                    -0.0,
                    0.00053,
                    1.15275
                ]
            ],
            [
                [
                    -0.45053,
                    -0.0,
                    0.0
                ],
                [
                    0.0,
                    0.35887,
                    -0.69791
                ],
                [
                    0.0,
                    -0.96923,
                    0.82522
                ]
            ],
            [
                [
                    -0.45053,
                    -0.0,
                    0.0
                ],
                [
                    0.0,
                    0.35887,
                    0.69791
                ],
                [
                    0.0,
                    0.96923,
                    0.82522
                ]
            ],
            [
                [
                    -1.10707,
                    -0.00015,
                    0.0
                ],
                [
                    0.0,
                    -1.60449,
                    0.0
                ],
                [
                    -0.0,
                    -0.00041,
                    -1.97797
                ]
            ],
            [
                [
                    -1.10707,
                    0.00015,
                    0.0
                ],
                [
                    0.0,
                    -1.6051,
                    0.0
                ],
                [
                    -0.0,
                    0.00041,
                    -1.97797
                ]
            ]
        ]
    },
    "band_gap": 1.5137999999999998,
    "is_direct": false,
    "formula": "CsCuO"
}