{
    "mp_id": "mp-505814",
    "nelements": 4,
    "nsites": 16,
    "elements": [
        "Ba",
        "Cs",
        "Nb",
        "O"
    ],
    "structure": {
        "@module": "pymatgen.core.structure",
        "@class": "Structure",
        "charge": null,
        "lattice": {
            "matrix": [
                [
                    4.02377734,
                    0.0,
                    0.0
                ],
                [
                    0.0,
                    4.02377734,
                    0.0
                ],
                [
                    0.0,
                    0.0,
                    15.64773219
                ]
            ],
            "a": 4.02377734,
            "b": 4.02377734,
            "c": 15.64773219,
            "alpha": 90.0,
            "beta": 90.0,
            "gamma": 90.0,
            "volume": 253.34905325964667
        },
        "sites": [
            {
                "species": [
                    {
                        "element": "Cs",
                        "occu": 1
                    }
                ],
                "abc": [
                    0.5,
                    0.5,
                    0.5
                ],
                "xyz": [
                    2.01188867,
                    2.01188867,
                    7.823866095
                ],
                "label": "Cs",
                "properties": {}
            },
            {
                "species": [
                    {
                        "element": "Ba",
                        "occu": 1
                    }
                ],
                "abc": [
                    0.5,
                    0.5,
                    0.85593827
                ],
                "xyz": [
                    2.01188867,
                    2.01188867,
                    13.393492820131911
                ],
                "label": "Ba",
                "properties": {}
            },
            {
                "species": [
                    {
                        "element": "Ba",
                        "occu": 1
                    }
                ],
                "abc": [
                    0.5,
                    0.5,
                    0.14406173
                ],
                "xyz": [
                    2.01188867,
                    2.01188867,
                    2.2542393698680887
                ],
                "label": "Ba",
                "properties": {}
            },
            {
                "species": [
                    {
                        "element": "Nb",
                        "occu": 1
                    }
                ],
                "abc": [
                    0.0,
                    0.0,
                    0.28783262
                ],
                "xyz": [
                    0.0,
                    0.0,
                    4.503927753306037
                ],
                "label": "Nb",
                "properties": {}
            },
            {
                "species": [
                    {
                        "element": "Nb",
                        "occu": 1
                    }
                ],
                "abc": [
                    0.0,
                    0.0,
                    0.71216738
                ],
                "xyz": [
                    0.0,
                    0.0,
                    11.143804436693962
                ],
                "label": "Nb",
                "properties": {}
            },
            {
                "species": [
                    {
                        "element": "Nb",
                        "occu": 1
                    }
                ],
                "abc": [
                    0.0,
                    0.0,
                    0.0
                ],
                "xyz": [
                    0.0,
                    0.0,
                    0.0
                ],
                "label": "Nb",
                "properties": {}
            },
            {
                "species": [
                    {
                        "element": "O",
                        "occu": 1
                    }
                ],
                "abc": [
                    0.0,
                    0.0,
                    0.40252041
                ],
                "xyz": [
                    0.0,
                    0.0,
                    6.2985315766889975
                ],
                "label": "O",
                "properties": {}
            },
            {
                "species": [
                    {
                        "element": "O",
                        "occu": 1
                    }
                ],
                "abc": [
                    0.5,
                    0.0,
                    0.26334349
                ],
                "xyz": [
                    2.01188867,
                    0.0,
                    4.120728405499943
                ],
                "label": "O",
                "properties": {}
            },
            {
                "species": [
                    {
                        "element": "O",
                        "occu": 1
                    }
                ],
                "abc": [
                    0.5,
                    0.0,
                    0.73665651
                ],
                "xyz": [
                    2.01188867,
                    0.0,
                    11.527003784500057
                ],
                "label": "O",
                "properties": {}
            },
            {
                "species": [
                    {
                        "element": "O",
                        "occu": 1
                    }
                ],
                "abc": [
                    0.0,
                    0.5,
                    0.73665651
                ],
                "xyz": [
                    0.0,
                    2.01188867,
                    11.527003784500057
                ],
                "label": "O",
                "properties": {}
            },
            {
                "species": [
                    {
                        "element": "O",
                        "occu": 1
                    }
                ],
                "abc": [
                    0.0,
                    0.0,
                    0.1273637
                ],
                "xyz": [
                    0.0,
                    0.0,
                    1.9929530683275027
                ],
                "label": "O",
                "properties": {}
            },
            {
                "species": [
                    {
                        "element": "O",
                        "occu": 1
                    }
                ],
                "abc": [
                    0.0,
                    0.5,
                    0.26334349
                ],
                "xyz": [
                    0.0,
                    2.01188867,
                    4.120728405499943
                ],
                "label": "O",
                "properties": {}
            },
            {
                "species": [
                    {
                        "element": "O",
                        "occu": 1
                    }
                ],
                "abc": [
                    0.0,
                    0.0,
                    0.59747959
                ],
                "xyz": [
                    0.0,
                    0.0,
                    9.349200613311002
                ],
                "label": "O",
                "properties": {}
            },
            {
                "species": [
                    {
                        "element": "O",
                        "occu": 1
                    }
                ],
                "abc": [
                    0.0,
                    0.0,
                    0.8726363
                ],
                "xyz": [
                    0.0,
                    0.0,
                    13.654779121672497
                ],
                "label": "O",
                "properties": {}
            },
            {
                "species": [
                    {
                        "element": "O",
                        "occu": 1
                    }
                ],
                "abc": [
                    0.0,
                    0.5,
                    0.0
                ],
                "xyz": [
                    0.0,
                    2.01188867,
                    0.0
                ],
                "label": "O",
                "properties": {}
            },
            {
                "species": [
                    {
                        "element": "O",
                        "occu": 1
                    }
                ],
                "abc": [
                    0.5,
                    0.0,
                    0.0
                ],
                "xyz": [
                    2.01188867,
                    0.0,
                    0.0
                ],
                "label": "O",
                "properties": {}
            }
        ]
    },
    "spacegroup": {
        "source": "spglib",
        "symbol": "P4/mmm",
        "number": 123,
        "point_group": "4/mmm",
        "crystal_system": "tetragonal",
        "hall": "-P 4 2"
    },
    "dielectric": {
        "epsilon_ionic": [
            [
                32.81209862,
                -7e-07,
                -0.0
            ],
            [
                -7e-07,
                32.8118277,
                0.0
            ],
            [
                -0.0,
                0.0,
                15.65966387
            ]
        ],
        "epsilon_ionic_avg": 27.094530063333337,
        "epsilon_ionic_eig": [
            32.81209862180864,
            32.811827698191365,
            15.65966387
        ],
        "epsilon_electronic": [
            [
                4.95632234,
                0.0,
                0.0
            ],
            [
                0.0,
                4.95632234,
                0.0
            ],
            [
                0.0,
                -0.0,
                4.29282405
            ]
        ],
        "epsilon_electronic_avg": 4.735156243333333,
        "epsilon_electronic_eig": [
            4.95632234,
            4.95632234,
            4.29282405
        ]
    },
    "phonon": {
        "lowest_freq": -0.0885768567115346,
        "frequency": [
            -0.0885768567115346,
            -0.0885768567115346,
            -0.025220721841035507,
            1.0569900637734455,
            1.0569900637734455,
            1.3304537443419977,
            1.8457048896267438,
            1.8457048896267438,
            2.5582667278273368,
            3.1470300873629022,
            3.1470300873629022,
            3.6235427702859497,
            3.6235427702859497,
            3.7902359660583476,
            3.7902359660583476,
            3.9767675865547436,
            4.686094095295427,
            4.906862444975944,
            5.412707158965888,
            5.412707158965888,
            6.466602963856631,
            6.466602963856631,
            6.4901527949223965,
            6.4901527949223965,
            7.02464926186708,
            7.02464926186708,
            7.356507990929557,
            7.356507990929557,
            7.673598937436144,
            7.673598937436144,
            7.919774953169019,
            8.643220225624505,
            8.737951695864059,
            9.14721057650433,
            9.14721057650433,
            11.43378749748636,
            12.196083147827391,
            12.87646312178594,
            15.48112870321575,
            15.48112870321575,
            15.498598654090054,
            15.498598654090054,
            17.635836938368012,
            17.635836938368012,
            17.820133169718478,
            19.53341347507297,
            25.85058842024485,
            27.214002507784468
        ]
    },
    "born_effective_charge": {
        "avg_abs_trace": 3.382292291666667,
        "tensors": [
            [
                [
                    1.36609,
                    0.0,
                    -0.0
                ],
                [
                    0.0,
                    1.36599,
                    -0.0
                ],
                [
                    0.0,
                    0.0,
                    1.97316
                ]
            ],
            [
                [
                    2.72264,
                    -0.0,
                    -0.0002
                ],
                [
                    -0.0,
                    2.72287,
                    -0.0002
                ],
                [
                    0.0,
                    0.0,
                    2.29571
                ]
            ],
            [
                [
                    2.72264,
                    -0.0,
                    0.0002
                ],
                [
                    -0.0,
                    2.72287,
                    0.0002
                ],
                [
                    0.0,
                    0.0,
                    2.2957
                ]
            ],
            [
                [
                    7.16145,
                    0.0,
                    -0.00203
                ],
                [
                    0.0,
                    7.16138,
                    -0.00203
                ],
                [
                    -0.0,
                    -0.0,
                    5.21079
                ]
            ],
            [
                [
                    7.16145,
                    0.0,
                    0.00203
                ],
                [
                    0.0,
                    7.16138,
                    0.00203
                ],
                [
                    0.0,
                    0.0,
                    5.2122
                ]
            ],
            [
                [
                    8.2458,
                    0.0,
                    -0.0
                ],
                [
                    0.0,
                    8.24575,
                    -0.0
                ],
                [
                    0.0,
                    0.0,
                    5.42715
                ]
            ],
            [
                [
                    -1.07902,
                    0.0,
                    0.00036
                ],
                [
                    0.0,
                    -1.0791,
                    0.00036
                ],
                [
                    0.0,
                    -0.0,
                    -3.62042
                ]
            ],
            [
                [
                    -5.62936,
                    0.0,
                    0.00274
                ],
                [
                    0.0,
                    -1.83347,
                    -0.00037
                ],
                [
                    0.0,
                    0.0,
                    -1.37876
                ]
            ],
            [
                [
                    -5.62936,
                    0.0,
                    -0.00274
                ],
                [
                    0.0,
                    -1.83347,
                    0.00037
                ],
                [
                    0.0,
                    0.0,
                    -1.37855
                ]
            ],
            [
                [
                    -1.83344,
                    0.0,
                    0.00037
                ],
                [
                    0.0,
                    -5.62946,
                    -0.00274
                ],
                [
                    0.0,
                    0.0,
                    -1.37855
                ]
            ],
            [
                [
                    -2.11725,
                    0.0,
                    0.0007
                ],
                [
                    -0.0,
                    -2.11709,
                    0.0007
                ],
                [
                    0.0,
                    0.0,
                    -3.61761
                ]
            ],
            [
                [
                    -1.83344,
                    0.0,
                    -0.00037
                ],
                [
                    0.0,
                    -5.62946,
                    0.00274
                ],
                [
                    0.0,
                    0.0,
                    -1.37876
                ]
            ],
            [
                [
                    -1.07902,
                    0.0,
                    -0.00036
                ],
                [
                    0.0,
                    -1.0791,
                    -0.00036
                ],
                [
                    0.0,
                    -0.0,
                    -3.62464
                ]
            ],
            [
                [
                    -2.11725,
                    0.0,
                    -0.0007
                ],
                [
                    -0.0,
                    -2.11709,
                    -0.0007
                ],
                [
                    0.0,
                    0.0,
                    -3.61465
                ]
            ],
            [
                [
                    -1.83215,
                    0.0,
                    -0.0
                ],
                [
                    0.0,
                    -6.22978,
                    -0.0
                ],
                [
                    0.0,
                    0.0,
                    -1.21139
                ]
            ],
            [
                [
                    -6.22976,
                    0.0,
                    -0.0
                ],
                [
                    0.0,
                    -1.83222,
                    -0.0
                ],
                [
                    0.0,
                    0.0,
                    -1.21139
                ]
            ]
        ]
    },
    "band_gap": 1.5891999999999997,
    "is_direct": false,
    "formula": "CsBa2Nb3O10"
}