{
    "mp_id": "mp-5274",
    "nelements": 3,
    "nsites": 9,
    "elements": [
        "O",
        "Th",
        "Ti"
    ],
    "structure": {
        "@module": "pymatgen.core.structure",
        "@class": "Structure",
        "charge": null,
        "lattice": {
            "matrix": [
                [
                    5.00976249,
                    -1.96285095,
                    -0.00016944
                ],
                [
                    5.00976249,
                    1.96285095,
                    -0.00016944
                ],
                [
                    -3.57485213,
                    0.0,
                    6.29989115
                ]
            ],
            "a": 5.380567264409657,
            "b": 5.380567264409657,
            "c": 7.243493373588041,
            "alpha": 117.35754127986004,
            "beta": 117.35754127986004,
            "gamma": 42.79100751243462,
            "volume": 123.89653636830263
        },
        "sites": [
            {
                "species": [
                    {
                        "element": "Th",
                        "occu": 1
                    }
                ],
                "abc": [
                    0.0,
                    0.0,
                    0.0
                ],
                "xyz": [
                    0.0,
                    0.0,
                    0.0
                ],
                "label": "Th",
                "properties": {}
            },
            {
                "species": [
                    {
                        "element": "Ti",
                        "occu": 1
                    }
                ],
                "abc": [
                    0.82542229,
                    0.82542229,
                    0.40448171
                ],
                "xyz": [
                    6.824376951164262,
                    0.0,
                    2.547911026060231
                ],
                "label": "Ti",
                "properties": {}
            },
            {
                "species": [
                    {
                        "element": "Ti",
                        "occu": 1
                    }
                ],
                "abc": [
                    0.17457771,
                    0.17457771,
                    0.59551829
                ],
                "xyz": [
                    -0.3797041011642617,
                    0.0,
                    3.7516412439397686
                ],
                "label": "Ti",
                "properties": {}
            },
            {
                "species": [
                    {
                        "element": "O",
                        "occu": 1
                    }
                ],
                "abc": [
                    0.27979481,
                    0.27979481,
                    0.41012291
                ],
                "xyz": [
                    1.3372823296940552,
                    0.0,
                    2.5836348742560338
                ],
                "label": "O",
                "properties": {}
            },
            {
                "species": [
                    {
                        "element": "O",
                        "occu": 1
                    }
                ],
                "abc": [
                    0.72020519,
                    0.72020519,
                    0.58987709
                ],
                "xyz": [
                    5.107390520305945,
                    0.0,
                    3.715917395743966
                ],
                "label": "O",
                "properties": {}
            },
            {
                "species": [
                    {
                        "element": "O",
                        "occu": 1
                    }
                ],
                "abc": [
                    0.66090592,
                    0.66090592,
                    0.11670571
                ],
                "xyz": [
                    6.2047577188932195,
                    0.0,
                    0.7350093017852969
                ],
                "label": "O",
                "properties": {}
            },
            {
                "species": [
                    {
                        "element": "O",
                        "occu": 1
                    }
                ],
                "abc": [
                    0.02235856,
                    0.02235856,
                    0.68355135
                ],
                "xyz": [
                    -2.2195728490750466,
                    0.0,
                    4.30629152356674
                ],
                "label": "O",
                "properties": {}
            },
            {
                "species": [
                    {
                        "element": "O",
                        "occu": 1
                    }
                ],
                "abc": [
                    0.97764144,
                    0.97764144,
                    0.31644865
                ],
                "xyz": [
                    8.664245699075046,
                    0.0,
                    1.9932607464332603
                ],
                "label": "O",
                "properties": {}
            },
            {
                "species": [
                    {
                        "element": "O",
                        "occu": 1
                    }
                ],
                "abc": [
                    0.33909408,
                    0.33909408,
                    0.88329429
                ],
                "xyz": [
                    0.23991513110678087,
                    0.0,
                    5.564542968214703
                ],
                "label": "O",
                "properties": {}
            }
        ]
    },
    "spacegroup": {
        "source": "spglib",
        "symbol": "C2/m",
        "number": 12,
        "point_group": "2/m",
        "crystal_system": "monoclinic",
        "hall": "-C 2y"
    },
    "dielectric": {
        "epsilon_ionic": [
            [
                13.74325952,
                3e-08,
                4.15212467
            ],
            [
                3e-08,
                18.20997455,
                3e-08
            ],
            [
                4.15212467,
                3e-08,
                20.24803361
            ]
        ],
        "epsilon_ionic_avg": 17.40042256,
        "epsilon_ionic_eig": [
            11.721354122813423,
            22.269939007186576,
            18.20997455
        ],
        "epsilon_electronic": [
            [
                5.38268065,
                0.0,
                0.29974184
            ],
            [
                0.0,
                5.46196297,
                0.0
            ],
            [
                0.29974116,
                0.0,
                5.4291428
            ]
        ],
        "epsilon_electronic_avg": 5.4245954733333335,
        "epsilon_electronic_eig": [
            5.105271325739039,
            5.706552124260961,
            5.46196297
        ]
    },
    "phonon": {
        "lowest_freq": -0.05169628734704001,
        "frequency": [
            -0.05169628734704001,
            -0.02984857839447127,
            -0.025305935772109996,
            3.0399249027817605,
            3.55025773451808,
            4.288250233970724,
            5.293456626079237,
            5.408799356454309,
            5.578663767821393,
            7.31393923395537,
            7.885020805367192,
            7.958136229619207,
            10.282357277849355,
            10.684092833792239,
            10.789665353316721,
            11.571540126663802,
            12.3733257407227,
            12.655979767332497,
            13.440892631563898,
            14.564005421659054,
            14.57286254034147,
            14.951695018325214,
            16.025662803979195,
            17.876229194975096,
            18.629542973224897,
            19.20144571821453,
            22.104074799127144
        ]
    },
    "born_effective_charge": {
        "avg_abs_trace": 3.736211481481482,
        "tensors": [
            [
                [
                    4.8132,
                    0.0,
                    -0.63437
                ],
                [
                    0.0,
                    5.99817,
                    0.0
                ],
                [
                    0.32117,
                    0.0,
                    6.79467
                ]
            ],
            [
                [
                    5.87797,
                    0.0,
                    0.94406
                ],
                [
                    0.00087,
                    5.5798,
                    -4e-05
                ],
                [
                    0.39018,
                    0.0,
                    4.95867
                ]
            ],
            [
                [
                    5.87774,
                    0.0,
                    0.94441
                ],
                [
                    -0.00087,
                    5.5798,
                    4e-05
                ],
                [
                    0.39027,
                    0.0,
                    4.95884
                ]
            ],
            [
                [
                    -2.14392,
                    0.0,
                    0.31627
                ],
                [
                    -0.00112,
                    -4.63372,
                    -2e-05
                ],
                [
                    0.4475,
                    0.0,
                    -1.60897
                ]
            ],
            [
                [
                    -2.14397,
                    0.0,
                    0.31639
                ],
                [
                    0.00112,
                    -4.63372,
                    2e-05
                ],
                [
                    0.44762,
                    0.0,
                    -1.60914
                ]
            ],
            [
                [
                    -1.98613,
                    0.0,
                    -1.36266
                ],
                [
                    3e-05,
                    -3.00019,
                    0.0001
                ],
                [
                    -1.39959,
                    0.0,
                    -3.46538
                ]
            ],
            [
                [
                    -4.15437,
                    0.0,
                    0.41943
                ],
                [
                    -2e-05,
                    -0.94497,
                    -2e-05
                ],
                [
                    0.40139,
                    0.0,
                    -3.282
                ]
            ],
            [
                [
                    -4.15444,
                    0.0,
                    0.41911
                ],
                [
                    2e-05,
                    -0.94497,
                    2e-05
                ],
                [
                    0.40107,
                    0.0,
                    -3.28139
                ]
            ],
            [
                [
                    -1.98608,
                    0.0,
                    -1.36265
                ],
                [
                    -3e-05,
                    -3.00019,
                    -0.0001
                ],
                [
                    -1.3996,
                    0.0,
                    -3.4653
                ]
            ]
        ]
    },
    "band_gap": 3.2446,
    "is_direct": false,
    "formula": "ThTi2O6"
}