{
    "mp_id": "mp-555140",
    "nelements": 4,
    "nsites": 20,
    "elements": [
        "Cs",
        "Ga",
        "Li",
        "O"
    ],
    "structure": {
        "@module": "pymatgen.core.structure",
        "@class": "Structure",
        "charge": null,
        "lattice": {
            "matrix": [
                [
                    -2.50570933,
                    4.98315283,
                    5.85753686
                ],
                [
                    2.50570933,
                    -4.98315283,
                    5.85753686
                ],
                [
                    2.50570933,
                    4.98315283,
                    -5.85753686
                ]
            ],
            "a": 8.088332920932762,
            "b": 8.088332920932762,
            "c": 8.088332920932762,
            "alpha": 143.90648158605282,
            "beta": 103.93745896592934,
            "gamma": 87.19601948025608,
            "volume": 292.5566123723955
        },
        "sites": [
            {
                "species": [
                    {
                        "element": "Cs",
                        "occu": 1
                    }
                ],
                "abc": [
                    0.37232193,
                    0.23871285,
                    0.61103478
                ],
                "xyz": [
                    1.196290030871781,
                    3.7106741583011233,
                    0.0
                ],
                "label": "Cs",
                "properties": {}
            },
            {
                "species": [
                    {
                        "element": "Cs",
                        "occu": 1
                    }
                ],
                "abc": [
                    0.62767807,
                    0.76128715,
                    0.38896522
                ],
                "xyz": [
                    1.3094192991282192,
                    1.2724786716988759,
                    5.857536860000001
                ],
                "label": "Cs",
                "properties": {}
            },
            {
                "species": [
                    {
                        "element": "Cs",
                        "occu": 1
                    }
                ],
                "abc": [
                    0.87232193,
                    0.26128715,
                    0.13361008
                ],
                "xyz": [
                    -1.1962875251624512,
                    3.7106791414539533,
                    5.857531002463141
                ],
                "label": "Cs",
                "properties": {}
            },
            {
                "species": [
                    {
                        "element": "Cs",
                        "occu": 1
                    }
                ],
                "abc": [
                    0.12767807,
                    0.73871285,
                    0.86638992
                ],
                "xyz": [
                    3.7019968551624514,
                    1.2724736885460466,
                    5.8575368591107235e-06
                ],
                "label": "Cs",
                "properties": {}
            },
            {
                "species": [
                    {
                        "element": "Li",
                        "occu": 1
                    }
                ],
                "abc": [
                    0.49044411,
                    0.75,
                    0.74044411
                ],
                "xyz": [
                    2.50570933,
                    2.3963394944066625,
                    2.92876843
                ],
                "label": "Li",
                "properties": {}
            },
            {
                "species": [
                    {
                        "element": "Li",
                        "occu": 1
                    }
                ],
                "abc": [
                    0.99044411,
                    0.25,
                    0.74044411
                ],
                "xyz": [
                    0.0,
                    7.379492324406662,
                    2.92876843
                ],
                "label": "Li",
                "properties": {}
            },
            {
                "species": [
                    {
                        "element": "Li",
                        "occu": 1
                    }
                ],
                "abc": [
                    0.00955589,
                    0.75,
                    0.25955589
                ],
                "xyz": [
                    2.50570933,
                    -2.3963394944066625,
                    2.92876843
                ],
                "label": "Li",
                "properties": {}
            },
            {
                "species": [
                    {
                        "element": "Li",
                        "occu": 1
                    }
                ],
                "abc": [
                    0.25,
                    0.75,
                    0.5
                ],
                "xyz": [
                    2.50570933,
                    0.0,
                    2.92876843
                ],
                "label": "Li",
                "properties": {}
            },
            {
                "species": [
                    {
                        "element": "Li",
                        "occu": 1
                    }
                ],
                "abc": [
                    0.50955589,
                    0.25,
                    0.25955589
                ],
                "xyz": [
                    -1.1102230246251565e-16,
                    2.5868133355933374,
                    2.92876843
                ],
                "label": "Li",
                "properties": {}
            },
            {
                "species": [
                    {
                        "element": "Li",
                        "occu": 1
                    }
                ],
                "abc": [
                    0.75,
                    0.25,
                    0.5
                ],
                "xyz": [
                    0.0,
                    4.98315283,
                    2.92876843
                ],
                "label": "Li",
                "properties": {}
            },
            {
                "species": [
                    {
                        "element": "Ga",
                        "occu": 1
                    }
                ],
                "abc": [
                    0.75,
                    0.75,
                    0.0
                ],
                "xyz": [
                    0.0,
                    0.0,
                    8.78630529
                ],
                "label": "Ga",
                "properties": {}
            },
            {
                "species": [
                    {
                        "element": "Ga",
                        "occu": 1
                    }
                ],
                "abc": [
                    0.25,
                    0.25,
                    0.0
                ],
                "xyz": [
                    0.0,
                    0.0,
                    2.92876843
                ],
                "label": "Ga",
                "properties": {}
            },
            {
                "species": [
                    {
                        "element": "O",
                        "occu": 1
                    }
                ],
                "abc": [
                    0.05651684,
                    0.94128334,
                    0.64830656
                ],
                "xyz": [
                    3.84143547001365,
                    -1.1783160191926303,
                    2.047171761484833
                ],
                "label": "O",
                "properties": {}
            },
            {
                "species": [
                    {
                        "element": "O",
                        "occu": 1
                    }
                ],
                "abc": [
                    0.20702322,
                    0.55871666,
                    0.11523449
                ],
                "xyz": [
                    1.169985670638587,
                    -1.1783110858713284,
                    3.8103592995536752
                ],
                "label": "O",
                "properties": {}
            },
            {
                "species": [
                    {
                        "element": "O",
                        "occu": 1
                    }
                ],
                "abc": [
                    0.79297678,
                    0.44128334,
                    0.88476551
                ],
                "xyz": [
                    1.3357236593614135,
                    6.1614639158713285,
                    2.0471775604463245
                ],
                "label": "O",
                "properties": {}
            },
            {
                "species": [
                    {
                        "element": "O",
                        "occu": 1
                    }
                ],
                "abc": [
                    0.55651684,
                    0.90821027,
                    0.11523449
                ],
                "xyz": [
                    1.1699856455814936,
                    -1.1783110360397997,
                    7.904702763947973
                ],
                "label": "O",
                "properties": {}
            },
            {
                "species": [
                    {
                        "element": "O",
                        "occu": 1
                    }
                ],
                "abc": [
                    0.94348316,
                    0.05871666,
                    0.35169344
                ],
                "xyz": [
                    -1.3357261400136493,
                    6.16146884919263,
                    3.8103650985151667
                ],
                "label": "O",
                "properties": {}
            },
            {
                "species": [
                    {
                        "element": "O",
                        "occu": 1
                    }
                ],
                "abc": [
                    0.70702322,
                    0.59178973,
                    0.64830656
                ],
                "xyz": [
                    1.3357261650707433,
                    3.804836760975841,
                    3.8103651570905352
                ],
                "label": "O",
                "properties": {}
            },
            {
                "species": [
                    {
                        "element": "O",
                        "occu": 1
                    }
                ],
                "abc": [
                    0.44348316,
                    0.09178973,
                    0.88476551
                ],
                "xyz": [
                    1.3357236844185068,
                    6.1614638660398,
                    -2.047165903947973
                ],
                "label": "O",
                "properties": {}
            },
            {
                "species": [
                    {
                        "element": "O",
                        "occu": 1
                    }
                ],
                "abc": [
                    0.29297678,
                    0.40821027,
                    0.35169344
                ],
                "xyz": [
                    1.1699831649292571,
                    1.1783160690241588,
                    2.0471717029094645
                ],
                "label": "O",
                "properties": {}
            }
        ]
    },
    "spacegroup": {
        "source": "spglib",
        "symbol": "Ibam",
        "number": 72,
        "point_group": "mmm",
        "crystal_system": "orthorhombic",
        "hall": "-I 2 2c"
    },
    "dielectric": {
        "epsilon_ionic": [
            [
                13.81500886,
                0.0,
                0.0
            ],
            [
                0.0,
                9.7973867,
                -0.0
            ],
            [
                0.0,
                -0.0,
                7.66085066
            ]
        ],
        "epsilon_ionic_avg": 10.424415406666668,
        "epsilon_ionic_eig": [
            13.81500886,
            9.7973867,
            7.66085066
        ],
        "epsilon_electronic": [
            [
                3.42615266,
                0.0,
                0.0
            ],
            [
                0.0,
                3.42237981,
                0.0
            ],
            [
                0.0,
                0.0,
                3.58446663
            ]
        ],
        "epsilon_electronic_avg": 3.4776663666666665,
        "epsilon_electronic_eig": [
            3.42615266,
            3.42237981,
            3.58446663
        ]
    },
    "phonon": {
        "lowest_freq": -0.12480859100960086,
        "frequency": [
            -0.12480859100960086,
            -0.08040056431662884,
            -0.027184762378258138,
            1.477516525703646,
            1.49897745263535,
            1.6509591710923397,
            1.9783254778380688,
            2.009582804069783,
            2.061939780838412,
            2.2424427352780745,
            2.4115085074505527,
            2.5473634857423937,
            2.9826216780767325,
            3.2026488932437944,
            3.2968987005978447,
            3.3102620282090354,
            3.6962200087329,
            4.496003196464299,
            4.844036225645983,
            5.580942901273953,
            7.0682639158689,
            7.073393211279866,
            7.123674841403501,
            7.380051225592988,
            7.715628880527786,
            7.739283752610626,
            7.918258342282524,
            8.818164662769187,
            9.063844859734255,
            9.153667518478914,
            9.294125352899455,
            9.399797274072885,
            9.647813939023123,
            9.718748468189233,
            9.94679167504105,
            10.194329885208937,
            10.294650681658343,
            10.96971009040977,
            11.288276725760667,
            12.028083030504385,
            12.044379947712788,
            12.183139492619821,
            12.303780490677587,
            12.760515741029659,
            13.36207751805342,
            14.663081830121861,
            15.094293560924159,
            15.158390900530733,
            15.584662302041885,
            15.59220948157168,
            15.84394504423236,
            15.884689447257802,
            15.896928364340978,
            16.062109285760673,
            17.551670517080062,
            17.557883343428216,
            17.680654216850435,
            17.70404099331075,
            17.898395545905846,
            18.558366683948673
        ]
    },
    "born_effective_charge": {
        "avg_abs_trace": 1.5946923333333332,
        "tensors": [
            [
                [
                    1.29714,
                    0.09036,
                    -0.0
                ],
                [
                    0.00849,
                    1.30483,
                    0.0
                ],
                [
                    0.0,
                    -0.0,
                    1.51894
                ]
            ],
            [
                [
                    1.29711,
                    0.09037,
                    -0.0
                ],
                [
                    0.00846,
                    1.30489,
                    -0.0
                ],
                [
                    -0.0,
                    0.0,
                    1.51894
                ]
            ],
            [
                [
                    1.29711,
                    -0.09037,
                    -0.0
                ],
                [
                    -0.00849,
                    1.30483,
                    -0.0
                ],
                [
                    -0.0,
                    -0.0,
                    1.51894
                ]
            ],
            [
                [
                    1.29714,
                    -0.09036,
                    -0.0
                ],
                [
                    -0.00846,
                    1.30489,
                    -0.0
                ],
                [
                    0.0,
                    0.0,
                    1.51894
                ]
            ],
            [
                [
                    0.98522,
                    -0.0,
                    0.12646
                ],
                [
                    -0.0,
                    1.17683,
                    -0.0
                ],
                [
                    0.00083,
                    -0.0,
                    0.81834
                ]
            ],
            [
                [
                    0.98522,
                    -0.0,
                    -0.12646
                ],
                [
                    -0.0,
                    1.17683,
                    -0.0
                ],
                [
                    -0.00083,
                    -0.0,
                    0.81834
                ]
            ],
            [
                [
                    0.98522,
                    0.0,
                    -0.12646
                ],
                [
                    -0.0,
                    1.17682,
                    -0.0
                ],
                [
                    -0.00083,
                    0.0,
                    0.81834
                ]
            ],
            [
                [
                    1.15271,
                    0.0,
                    -0.0
                ],
                [
                    -0.0,
                    0.74316,
                    -0.0
                ],
                [
                    0.0,
                    -0.0,
                    0.788
                ]
            ],
            [
                [
                    0.98522,
                    0.0,
                    0.12646
                ],
                [
                    -0.0,
                    1.17682,
                    -0.0
                ],
                [
                    0.00083,
                    0.0,
                    0.81834
                ]
            ],
            [
                [
                    1.15271,
                    0.0,
                    -0.0
                ],
                [
                    -0.0,
                    0.74316,
                    -0.0
                ],
                [
                    0.0,
                    -0.0,
                    0.788
                ]
            ],
            [
                [
                    2.45207,
                    0.0,
                    -0.0
                ],
                [
                    -0.0,
                    2.39011,
                    -0.0
                ],
                [
                    0.0,
                    -0.0,
                    2.19172
                ]
            ],
            [
                [
                    2.45207,
                    0.0,
                    -0.0
                ],
                [
                    -0.0,
                    2.39011,
                    -0.0
                ],
                [
                    0.0,
                    -0.0,
                    2.19172
                ]
            ],
            [
                [
                    -2.04235,
                    -0.24786,
                    -0.09474
                ],
                [
                    -0.24467,
                    -2.02415,
                    -0.13697
                ],
                [
                    -0.2732,
                    -0.28345,
                    -1.91358
                ]
            ],
            [
                [
                    -2.04238,
                    0.24787,
                    -0.09475
                ],
                [
                    0.24467,
                    -2.02415,
                    0.13697
                ],
                [
                    -0.27319,
                    0.28344,
                    -1.91356
                ]
            ],
            [
                [
                    -2.04235,
                    0.24786,
                    -0.09474
                ],
                [
                    0.24465,
                    -2.02417,
                    0.13701
                ],
                [
                    -0.2732,
                    0.28345,
                    -1.91358
                ]
            ],
            [
                [
                    -2.04238,
                    0.24787,
                    0.09475
                ],
                [
                    0.24467,
                    -2.02415,
                    -0.13697
                ],
                [
                    0.2732,
                    -0.28345,
                    -1.91358
                ]
            ],
            [
                [
                    -2.04238,
                    -0.24787,
                    -0.09475
                ],
                [
                    -0.24465,
                    -2.02417,
                    -0.13701
                ],
                [
                    -0.27319,
                    -0.28344,
                    -1.91356
                ]
            ],
            [
                [
                    -2.04235,
                    -0.24786,
                    0.09474
                ],
                [
                    -0.24467,
                    -2.02415,
                    0.13697
                ],
                [
                    0.27319,
                    0.28344,
                    -1.91356
                ]
            ],
            [
                [
                    -2.04235,
                    0.24786,
                    0.09474
                ],
                [
                    0.24465,
                    -2.02417,
                    -0.13701
                ],
                [
                    0.27319,
                    -0.28344,
                    -1.91356
                ]
            ],
            [
                [
                    -2.04238,
                    -0.24787,
                    0.09475
                ],
                [
                    -0.24465,
                    -2.02417,
                    0.13701
                ],
                [
                    0.2732,
                    0.28345,
                    -1.91358
                ]
            ]
        ]
    },
    "band_gap": 3.8875,
    "is_direct": false,
    "formula": "Cs2Li3GaO4"
}