{
    "mp_id": "mp-5558",
    "nelements": 3,
    "nsites": 12,
    "elements": [
        "Na",
        "O",
        "Re"
    ],
    "structure": {
        "@module": "pymatgen.core.structure",
        "@class": "Structure",
        "charge": null,
        "lattice": {
            "matrix": [
                [
                    -2.67230263,
                    2.67230264,
                    5.72942634
                ],
                [
                    2.67230263,
                    -2.67230264,
                    5.72942634
                ],
                [
                    2.67230264,
                    2.67230263,
                    -5.72942634
                ]
            ],
            "a": 6.863579891830624,
            "b": 6.863579891830624,
            "c": 6.863579891830624,
            "alpha": 134.17246247717384,
            "beta": 134.17246247717384,
            "gamma": 66.81876129740124,
            "volume": 163.65994898348185
        },
        "sites": [
            {
                "species": [
                    {
                        "element": "Na",
                        "occu": 1
                    }
                ],
                "abc": [
                    0.25,
                    0.75,
                    0.5
                ],
                "xyz": [
                    2.6723026349999994,
                    -4.999999969612645e-09,
                    2.86471317
                ],
                "label": "Na",
                "properties": {}
            },
            {
                "species": [
                    {
                        "element": "Na",
                        "occu": 1
                    }
                ],
                "abc": [
                    0.5,
                    0.5,
                    0.0
                ],
                "xyz": [
                    0.0,
                    0.0,
                    5.72942634
                ],
                "label": "Na",
                "properties": {}
            },
            {
                "species": [
                    {
                        "element": "Re",
                        "occu": 1
                    }
                ],
                "abc": [
                    0.75,
                    0.25,
                    0.5
                ],
                "xyz": [
                    5.00000019165725e-09,
                    2.672302635,
                    2.86471317
                ],
                "label": "Re",
                "properties": {}
            },
            {
                "species": [
                    {
                        "element": "Re",
                        "occu": 1
                    }
                ],
                "abc": [
                    0.0,
                    0.0,
                    0.0
                ],
                "xyz": [
                    0.0,
                    0.0,
                    0.0
                ],
                "label": "Re",
                "properties": {}
            },
            {
                "species": [
                    {
                        "element": "O",
                        "occu": 1
                    }
                ],
                "abc": [
                    0.94898188,
                    0.31940147,
                    0.095794
                ],
                "xyz": [
                    -1.4264388263433185,
                    1.9384199498735024,
                    6.718264307893479
                ],
                "label": "O",
                "properties": {}
            },
            {
                "species": [
                    {
                        "element": "O",
                        "occu": 1
                    }
                ],
                "abc": [
                    0.60318788,
                    0.19898188,
                    0.1295804
                ],
                "xyz": [
                    -0.7338827118495239,
                    1.4264388046202918,
                    3.8535511951877424
                ],
                "label": "O",
                "properties": {}
            },
            {
                "species": [
                    {
                        "element": "O",
                        "occu": 1
                    }
                ],
                "abc": [
                    0.06940147,
                    0.47360747,
                    0.8704196
                ],
                "xyz": [
                    3.4061853518495235,
                    1.245863825379708,
                    -1.8758752594007841
                ],
                "label": "O",
                "properties": {}
            },
            {
                "species": [
                    {
                        "element": "O",
                        "occu": 1
                    }
                ],
                "abc": [
                    0.22360747,
                    0.85318788,
                    0.904206
                ],
                "xyz": [
                    4.098741466343318,
                    0.7338826801264973,
                    0.9888379678934802
                ],
                "label": "O",
                "properties": {}
            },
            {
                "species": [
                    {
                        "element": "O",
                        "occu": 1
                    }
                ],
                "abc": [
                    0.52639253,
                    0.39681212,
                    0.595794
                ],
                "xyz": [
                    1.245863808656682,
                    1.9384199448735022,
                    1.8758752021065206
                ],
                "label": "O",
                "properties": {}
            },
            {
                "species": [
                    {
                        "element": "O",
                        "occu": 1
                    }
                ],
                "abc": [
                    0.68059853,
                    0.77639253,
                    0.6295804
                ],
                "xyz": [
                    1.9384199231504757,
                    1.4264387996202925,
                    4.740588429400784
                ],
                "label": "O",
                "properties": {}
            },
            {
                "species": [
                    {
                        "element": "O",
                        "occu": 1
                    }
                ],
                "abc": [
                    0.14681212,
                    0.05101812,
                    0.3704196
                ],
                "xyz": [
                    0.7338827168495241,
                    1.2458638303797078,
                    -0.9888380251877424
                ],
                "label": "O",
                "properties": {}
            },
            {
                "species": [
                    {
                        "element": "O",
                        "occu": 1
                    }
                ],
                "abc": [
                    0.80101812,
                    0.93059853,
                    0.404206
                ],
                "xyz": [
                    1.4264388313433185,
                    0.7338826851264975,
                    7.605301542106519
                ],
                "label": "O",
                "properties": {}
            }
        ]
    },
    "spacegroup": {
        "source": "spglib",
        "symbol": "I4_1/a",
        "number": 88,
        "point_group": "4/m",
        "crystal_system": "tetragonal",
        "hall": "I 4bw -1bw"
    },
    "dielectric": {
        "epsilon_ionic": [
            [
                4.15390575,
                0.00276936,
                -0.0
            ],
            [
                0.00276936,
                4.11919625,
                -0.0
            ],
            [
                -0.0,
                -0.0,
                3.85090164
            ]
        ],
        "epsilon_ionic_avg": 4.041334546666667,
        "epsilon_ionic_eig": [
            4.154125319399968,
            4.118976680600031,
            3.85090164
        ],
        "epsilon_electronic": [
            [
                3.02719071,
                0.0004621,
                0.0
            ],
            [
                -0.0004621,
                3.02719071,
                0.0
            ],
            [
                0.0,
                0.0,
                3.35172224
            ]
        ],
        "epsilon_electronic_avg": 3.1353678866666663,
        "epsilon_electronic_eig": [
            3.02719071,
            3.02719071,
            3.35172224
        ]
    },
    "phonon": {
        "lowest_freq": -0.1716120909760198,
        "frequency": [
            -0.1716120909760198,
            -0.1716120909760198,
            -0.01396553879285682,
            2.1963031299872138,
            2.660679524933851,
            2.660679524933851,
            2.7565728237623826,
            2.7565728237623826,
            3.9325293689687326,
            4.318227432584499,
            4.318227432584499,
            4.353123481331832,
            4.353123481331832,
            4.360219212660022,
            4.742985638745286,
            5.780617108925125,
            5.780617108925125,
            6.567500713554946,
            7.494470509673776,
            8.294887039154588,
            8.294887039154588,
            9.075687900542404,
            9.649988727297925,
            10.949946183241273,
            10.993696045885814,
            11.002855798785623,
            11.002855798785623,
            11.454893076473702,
            26.437363397573765,
            26.58975872159954,
            26.58975872159954,
            26.834870401448864,
            26.834870401448864,
            27.63310741017945,
            28.351684188974918,
            28.569735578714447
        ]
    },
    "born_effective_charge": {
        "avg_abs_trace": 1.6615772222222223,
        "tensors": [
            [
                [
                    1.39352,
                    0.07972,
                    2e-05
                ],
                [
                    -0.0794,
                    1.38882,
                    3e-05
                ],
                [
                    -0.0,
                    -0.0,
                    1.22727
                ]
            ],
            [
                [
                    1.39352,
                    0.07972,
                    -2e-05
                ],
                [
                    -0.0794,
                    1.38882,
                    -3e-05
                ],
                [
                    -0.0,
                    -0.0,
                    1.22727
                ]
            ],
            [
                [
                    3.31111,
                    -0.26704,
                    -0.00122
                ],
                [
                    0.26474,
                    3.30996,
                    0.00037
                ],
                [
                    -0.0,
                    -0.0,
                    4.32351
                ]
            ],
            [
                [
                    3.31111,
                    -0.26704,
                    0.00122
                ],
                [
                    0.26474,
                    3.30996,
                    -0.00037
                ],
                [
                    -0.0,
                    -0.0,
                    4.32351
                ]
            ],
            [
                [
                    -1.32424,
                    0.49796,
                    -0.47816
                ],
                [
                    0.40809,
                    -1.02708,
                    0.62672
                ],
                [
                    -0.64297,
                    0.50856,
                    -1.38771
                ]
            ],
            [
                [
                    -1.02897,
                    -0.40452,
                    0.6294
                ],
                [
                    -0.50083,
                    -1.32286,
                    0.48248
                ],
                [
                    0.50856,
                    0.64297,
                    -1.38771
                ]
            ],
            [
                [
                    -1.02791,
                    -0.40336,
                    -0.62822
                ],
                [
                    -0.50069,
                    -1.32208,
                    -0.4823
                ],
                [
                    -0.50856,
                    -0.64297,
                    -1.38771
                ]
            ],
            [
                [
                    -1.32352,
                    0.49723,
                    0.47753
                ],
                [
                    0.40808,
                    -1.02676,
                    -0.62616
                ],
                [
                    0.64297,
                    -0.50856,
                    -1.38771
                ]
            ],
            [
                [
                    -1.32424,
                    0.49796,
                    0.47816
                ],
                [
                    0.40809,
                    -1.02708,
                    -0.62672
                ],
                [
                    0.643,
                    -0.50852,
                    -1.38768
                ]
            ],
            [
                [
                    -1.02897,
                    -0.40452,
                    -0.6294
                ],
                [
                    -0.50083,
                    -1.32286,
                    -0.48248
                ],
                [
                    -0.50852,
                    -0.643,
                    -1.38768
                ]
            ],
            [
                [
                    -1.02791,
                    -0.40336,
                    0.62822
                ],
                [
                    -0.50069,
                    -1.32208,
                    0.4823
                ],
                [
                    0.50852,
                    0.643,
                    -1.38768
                ]
            ],
            [
                [
                    -1.32352,
                    0.49723,
                    -0.47753
                ],
                [
                    0.40808,
                    -1.02676,
                    0.62616
                ],
                [
                    -0.643,
                    0.50852,
                    -1.38768
                ]
            ]
        ]
    },
    "band_gap": 3.5915,
    "is_direct": true,
    "formula": "NaReO4"
}