{
    "mp_id": "mp-558191",
    "nelements": 4,
    "nsites": 24,
    "elements": [
        "Na",
        "O",
        "Si",
        "Zr"
    ],
    "structure": {
        "@module": "pymatgen.core.structure",
        "@class": "Structure",
        "charge": null,
        "lattice": {
            "matrix": [
                [
                    5.4888355,
                    -0.00377346,
                    -0.00355256
                ],
                [
                    0.4423199,
                    6.53745301,
                    0.00496717
                ],
                [
                    0.30513272,
                    2.95492083,
                    8.41353887
                ]
            ],
            "a": 5.488837946755504,
            "b": 6.55240134795419,
            "c": 8.922572465684063,
            "alpha": 70.52220788689642,
            "beta": 88.08826710859998,
            "gamma": 86.16872305817621,
            "volume": 301.83896784674613
        },
        "sites": [
            {
                "species": [
                    {
                        "element": "Na",
                        "occu": 1
                    }
                ],
                "abc": [
                    0.73414197,
                    0.89368968,
                    0.11069044
                ],
                "xyz": [
                    4.458656511899765,
                    6.166765520001686,
                    0.9331293446482652
                ],
                "label": "Na",
                "properties": {}
            },
            {
                "species": [
                    {
                        "element": "Na",
                        "occu": 1
                    }
                ],
                "abc": [
                    0.26585803,
                    0.10631032,
                    0.88930956
                ],
                "xyz": [
                    1.7776316081002363,
                    3.3218348599983143,
                    7.481824135351735
                ],
                "label": "Na",
                "properties": {}
            },
            {
                "species": [
                    {
                        "element": "Na",
                        "occu": 1
                    }
                ],
                "abc": [
                    0.24527548,
                    0.34638144,
                    0.48833038
                ],
                "xyz": [
                    1.6484937429142297,
                    3.7065044621071888,
                    4.109435813169966
                ],
                "label": "Na",
                "properties": {}
            },
            {
                "species": [
                    {
                        "element": "Na",
                        "occu": 1
                    }
                ],
                "abc": [
                    0.75472452,
                    0.65361856,
                    0.51166962
                ],
                "xyz": [
                    4.587794377085771,
                    5.782095917892811,
                    4.305517666830034
                ],
                "label": "Na",
                "properties": {}
            },
            {
                "species": [
                    {
                        "element": "Zr",
                        "occu": 1
                    }
                ],
                "abc": [
                    0.22309081,
                    0.70557221,
                    0.72609818
                ],
                "xyz": [
                    1.7581536996721836,
                    6.75736598049604,
                    6.111767414492629
                ],
                "label": "Zr",
                "properties": {}
            },
            {
                "species": [
                    {
                        "element": "Zr",
                        "occu": 1
                    }
                ],
                "abc": [
                    0.77690919,
                    0.29442779,
                    0.27390182
                ],
                "xyz": [
                    4.478134420327817,
                    2.731234399503961,
                    2.3031860655073717
                ],
                "label": "Zr",
                "properties": {}
            },
            {
                "species": [
                    {
                        "element": "Si",
                        "occu": 1
                    }
                ],
                "abc": [
                    0.31231502,
                    0.93956238,
                    0.33565898
                ],
                "xyz": [
                    2.2322534444843978,
                    7.133012112756949,
                    2.827637323514166
                ],
                "label": "Si",
                "properties": {}
            },
            {
                "species": [
                    {
                        "element": "Si",
                        "occu": 1
                    }
                ],
                "abc": [
                    0.77388019,
                    0.34658551,
                    0.85557374
                ],
                "xyz": [
                    4.6620662701901665,
                    4.791018945557132,
                    7.197375210981194
                ],
                "label": "Si",
                "properties": {}
            },
            {
                "species": [
                    {
                        "element": "Si",
                        "occu": 1
                    }
                ],
                "abc": [
                    0.68768498,
                    0.06043762,
                    0.66434102
                ],
                "xyz": [
                    4.004034675515602,
                    2.3555882672430517,
                    5.587316156485834
                ],
                "label": "Si",
                "properties": {}
            },
            {
                "species": [
                    {
                        "element": "Si",
                        "occu": 1
                    }
                ],
                "abc": [
                    0.22611981,
                    0.65341449,
                    0.14442626
                ],
                "xyz": [
                    1.5742218498098333,
                    4.697581434442869,
                    1.217578269018806
                ],
                "label": "Si",
                "properties": {}
            },
            {
                "species": [
                    {
                        "element": "O",
                        "occu": 1
                    }
                ],
                "abc": [
                    0.88587798,
                    0.86853594,
                    0.66246601
                ],
                "xyz": [
                    5.448749290958343,
                    7.632204682239756,
                    5.57485055617727
                ],
                "label": "O",
                "properties": {}
            },
            {
                "species": [
                    {
                        "element": "O",
                        "occu": 1
                    }
                ],
                "abc": [
                    0.72340734,
                    0.28475367,
                    0.51574991
                ],
                "xyz": [
                    4.253988276469658,
                    3.382834140518476,
                    4.338126386891226
                ],
                "label": "O",
                "properties": {}
            },
            {
                "species": [
                    {
                        "element": "O",
                        "occu": 1
                    }
                ],
                "abc": [
                    0.28185555,
                    0.89366016,
                    0.16246013
                ],
                "xyz": [
                    1.9919143226756628,
                    6.321254554446886,
                    1.3703022717644924
                ],
                "label": "O",
                "properties": {}
            },
            {
                "species": [
                    {
                        "element": "O",
                        "occu": 1
                    }
                ],
                "abc": [
                    0.80899619,
                    0.28183082,
                    0.04532642
                ],
                "xyz": [
                    4.578936960978525,
                    1.9733390103639792,
                    0.37988149059737836
                ],
                "label": "O",
                "properties": {}
            },
            {
                "species": [
                    {
                        "element": "O",
                        "occu": 1
                    }
                ],
                "abc": [
                    0.40260141,
                    0.99870825,
                    0.66914931
                ],
                "xyz": [
                    2.8557407938736534,
                    8.50477228925688,
                    5.633444217511722
                ],
                "label": "O",
                "properties": {}
            },
            {
                "species": [
                    {
                        "element": "O",
                        "occu": 1
                    }
                ],
                "abc": [
                    0.59739859,
                    0.00129175,
                    0.33085069
                ],
                "xyz": [
                    3.380547326126347,
                    0.9838280907431188,
                    2.781509262488277
                ],
                "label": "O",
                "properties": {}
            },
            {
                "species": [
                    {
                        "element": "O",
                        "occu": 1
                    }
                ],
                "abc": [
                    0.03022945,
                    0.42075998,
                    0.76029663
                ],
                "xyz": [
                    0.5840263693018106,
                    4.997200877083946,
                    6.398767843649972
                ],
                "label": "O",
                "properties": {}
            },
            {
                "species": [
                    {
                        "element": "O",
                        "occu": 1
                    }
                ],
                "abc": [
                    0.11412202,
                    0.13146406,
                    0.33753399
                ],
                "xyz": [
                    0.7875388290416568,
                    1.856395697760243,
                    2.84010292382273
                ],
                "label": "O",
                "properties": {}
            },
            {
                "species": [
                    {
                        "element": "O",
                        "occu": 1
                    }
                ],
                "abc": [
                    0.54184646,
                    0.50839513,
                    0.77939346
                ],
                "xyz": [
                    3.4367978146594287,
                    5.624610606664661,
                    6.558057513711734
                ],
                "label": "O",
                "properties": {}
            },
            {
                "species": [
                    {
                        "element": "O",
                        "occu": 1
                    }
                ],
                "abc": [
                    0.45815354,
                    0.49160487,
                    0.22060654
                ],
                "xyz": [
                    2.7994903053405724,
                    3.863989773335339,
                    1.8568959662882651
                ],
                "label": "O",
                "properties": {}
            },
            {
                "species": [
                    {
                        "element": "O",
                        "occu": 1
                    }
                ],
                "abc": [
                    0.27659266,
                    0.71524633,
                    0.48425009
                ],
                "xyz": [
                    1.982299843530342,
                    6.105766239481524,
                    4.076827093108776
                ],
                "label": "O",
                "properties": {}
            },
            {
                "species": [
                    {
                        "element": "O",
                        "occu": 1
                    }
                ],
                "abc": [
                    0.19100381,
                    0.71816918,
                    0.95467358
                ],
                "xyz": [
                    1.6573511590214745,
                    7.51526136963602,
                    8.035071989402622
                ],
                "label": "O",
                "properties": {}
            },
            {
                "species": [
                    {
                        "element": "O",
                        "occu": 1
                    }
                ],
                "abc": [
                    0.96977055,
                    0.57924002,
                    0.23970337
                ],
                "xyz": [
                    5.65226175069819,
                    4.491399502916054,
                    2.0161856363500275
                ],
                "label": "O",
                "properties": {}
            },
            {
                "species": [
                    {
                        "element": "O",
                        "occu": 1
                    }
                ],
                "abc": [
                    0.71814445,
                    0.10633984,
                    0.83753987
                ],
                "xyz": [
                    4.244373797324338,
                    3.167345825553113,
                    7.044651208235507
                ],
                "label": "O",
                "properties": {}
            }
        ]
    },
    "spacegroup": {
        "source": "spglib",
        "symbol": "P-1",
        "number": 2,
        "point_group": "-1",
        "crystal_system": "triclinic",
        "hall": "-P 1"
    },
    "dielectric": {
        "epsilon_ionic": [
            [
                9.03495755,
                0.75549751,
                -0.66771832
            ],
            [
                0.75549751,
                5.99354125,
                0.62465721
            ],
            [
                -0.66771832,
                0.62465721,
                5.8453413
            ]
        ],
        "epsilon_ionic_avg": 6.957946699999998,
        "epsilon_ionic_eig": [
            9.290778315839306,
            5.03905848650755,
            6.54400329765314
        ],
        "epsilon_electronic": [
            [
                3.06068198,
                -0.02210132,
                0.03574095
            ],
            [
                -0.02210043,
                2.88338336,
                -0.01192486
            ],
            [
                0.03574223,
                -0.01192556,
                3.00262269
            ]
        ],
        "epsilon_electronic_avg": 2.9822293433333336,
        "epsilon_electronic_eig": [
            3.0808831209853973,
            2.9856216282984094,
            2.8801832807161936
        ]
    },
    "phonon": {
        "lowest_freq": -0.13015577812683743,
        "frequency": [
            -0.13015577812683743,
            -0.06936787053226878,
            -0.04346549834511289,
            1.7697721562408117,
            2.7555825700149343,
            2.755686010400436,
            3.3466813498647423,
            3.4512207264959267,
            3.4629024275869322,
            3.668229305715531,
            3.776715102660694,
            4.32396008629662,
            4.5064973912851025,
            4.800205702407164,
            4.864630054843343,
            4.978495799582338,
            5.096365504693903,
            5.09815077713682,
            5.4053116618099875,
            5.686992259626692,
            5.748215272928027,
            6.256218562327044,
            6.264482006266921,
            6.383169500996355,
            6.599123877549415,
            6.706438169749001,
            6.909961166784702,
            7.073065944107304,
            7.398388495807819,
            7.777531199124739,
            7.847464521012445,
            8.257962928111859,
            8.55029731082586,
            9.183684920860918,
            9.191172108976527,
            9.660643401555394,
            9.698275460563409,
            9.814653868950577,
            10.204948500082917,
            10.369974724693439,
            10.776747422852267,
            10.820685751626009,
            11.99397347181054,
            11.996407970150953,
            12.00866934424362,
            12.375466503971518,
            13.068330357560932,
            13.758811244551799,
            14.310570742044009,
            14.487298967199067,
            15.66882069069228,
            15.669008877789233,
            16.266251951711954,
            16.649852540560047,
            17.273701160742228,
            17.432879207215713,
            20.232097425635708,
            20.98442148191574,
            25.06608166709034,
            25.44729608913593,
            26.570662653065153,
            26.687711266782543,
            27.15944472765419,
            27.25681047899017,
            27.273743610148593,
            27.444781460029464,
            28.708903511561687,
            28.886056282274943,
            29.13293419697202,
            29.255220835068037,
            29.981704514085997,
            32.03913402230466
        ]
    },
    "born_effective_charge": {
        "avg_abs_trace": 2.3164808333333333,
        "tensors": [
            [
                [
                    1.07148,
                    -0.02544,
                    -0.04419
                ],
                [
                    -0.01472,
                    1.16855,
                    -0.0195
                ],
                [
                    -0.04784,
                    0.01225,
                    1.03626
                ]
            ],
            [
                [
                    1.07148,
                    -0.02544,
                    -0.04419
                ],
                [
                    -0.01471,
                    1.16854,
                    -0.01948
                ],
                [
                    -0.04785,
                    0.01224,
                    1.03627
                ]
            ],
            [
                [
                    1.09186,
                    0.016,
                    2e-05
                ],
                [
                    -0.01048,
                    1.14269,
                    0.06422
                ],
                [
                    0.01065,
                    0.04731,
                    1.08179
                ]
            ],
            [
                [
                    1.09186,
                    0.016,
                    2e-05
                ],
                [
                    -0.01048,
                    1.14269,
                    0.06422
                ],
                [
                    0.01065,
                    0.04732,
                    1.08179
                ]
            ],
            [
                [
                    5.38806,
                    0.27053,
                    0.17973
                ],
                [
                    -0.45292,
                    4.46678,
                    -0.32718
                ],
                [
                    0.10383,
                    0.01437,
                    5.06644
                ]
            ],
            [
                [
                    5.38801,
                    0.27052,
                    0.17981
                ],
                [
                    -0.45277,
                    4.46679,
                    -0.32824
                ],
                [
                    0.10384,
                    0.01422,
                    5.06641
                ]
            ],
            [
                [
                    3.47422,
                    -0.35293,
                    0.00703
                ],
                [
                    0.29524,
                    3.19846,
                    0.50381
                ],
                [
                    -0.04891,
                    -0.41678,
                    3.22421
                ]
            ],
            [
                [
                    3.38935,
                    -0.19926,
                    0.06831
                ],
                [
                    0.22495,
                    3.2222,
                    -0.17635
                ],
                [
                    0.2614,
                    0.24767,
                    3.67435
                ]
            ],
            [
                [
                    3.47421,
                    -0.35292,
                    0.00702
                ],
                [
                    0.29524,
                    3.19844,
                    0.50373
                ],
                [
                    -0.04889,
                    -0.41678,
                    3.22415
                ]
            ],
            [
                [
                    3.38934,
                    -0.19927,
                    0.06832
                ],
                [
                    0.22501,
                    3.22224,
                    -0.17631
                ],
                [
                    0.26141,
                    0.24772,
                    3.67439
                ]
            ],
            [
                [
                    -2.77196,
                    1.01688,
                    -0.35859
                ],
                [
                    0.97888,
                    -1.90792,
                    0.19181
                ],
                [
                    -0.39601,
                    0.32647,
                    -1.28531
                ]
            ],
            [
                [
                    -1.33491,
                    -0.01081,
                    0.1575
                ],
                [
                    -0.08762,
                    -1.61695,
                    0.01284
                ],
                [
                    0.22714,
                    0.10633,
                    -2.95152
                ]
            ],
            [
                [
                    -1.32832,
                    -0.13217,
                    -0.1267
                ],
                [
                    -0.41165,
                    -2.41845,
                    -0.71187
                ],
                [
                    -0.18345,
                    -0.56572,
                    -1.92383
                ]
            ],
            [
                [
                    -1.20025,
                    -0.0019,
                    -0.02696
                ],
                [
                    -0.02325,
                    -1.30778,
                    -0.31373
                ],
                [
                    -0.08618,
                    -0.65593,
                    -3.57352
                ]
            ],
            [
                [
                    -2.50618,
                    -0.87641,
                    0.20594
                ],
                [
                    -0.80783,
                    -2.03257,
                    0.13763
                ],
                [
                    0.29418,
                    0.32748,
                    -1.40224
                ]
            ],
            [
                [
                    -2.50624,
                    -0.87643,
                    0.2059
                ],
                [
                    -0.80766,
                    -2.03266,
                    0.13756
                ],
                [
                    0.29437,
                    0.32752,
                    -1.4023
                ]
            ],
            [
                [
                    -2.4337,
                    -0.77425,
                    0.47827
                ],
                [
                    -0.67969,
                    -2.02913,
                    0.22444
                ],
                [
                    0.42125,
                    0.21638,
                    -1.49899
                ]
            ],
            [
                [
                    -2.77191,
                    1.01676,
                    -0.35856
                ],
                [
                    0.97872,
                    -1.90772,
                    0.19167
                ],
                [
                    -0.39612,
                    0.32666,
                    -1.28531
                ]
            ],
            [
                [
                    -2.83962,
                    1.06992,
                    -0.54054
                ],
                [
                    0.98893,
                    -1.88602,
                    0.41477
                ],
                [
                    -0.55621,
                    0.33993,
                    -1.44768
                ]
            ],
            [
                [
                    -2.83961,
                    1.06993,
                    -0.54051
                ],
                [
                    0.98909,
                    -1.88622,
                    0.41477
                ],
                [
                    -0.55613,
                    0.33988,
                    -1.44767
                ]
            ],
            [
                [
                    -1.33494,
                    -0.01086,
                    0.15758
                ],
                [
                    -0.08756,
                    -1.61674,
                    0.01267
                ],
                [
                    0.22717,
                    0.10631,
                    -2.9514
                ]
            ],
            [
                [
                    -1.20023,
                    -0.00187,
                    -0.0269
                ],
                [
                    -0.02338,
                    -1.30775,
                    -0.31369
                ],
                [
                    -0.08615,
                    -0.65583,
                    -3.57331
                ]
            ],
            [
                [
                    -2.43369,
                    -0.77427,
                    0.47831
                ],
                [
                    -0.67972,
                    -2.02921,
                    0.22431
                ],
                [
                    0.42121,
                    0.21634,
                    -1.49901
                ]
            ],
            [
                [
                    -1.3283,
                    -0.1323,
                    -0.12661
                ],
                [
                    -0.41163,
                    -2.41826,
                    -0.71212
                ],
                [
                    -0.18337,
                    -0.56537,
                    -1.92398
                ]
            ]
        ]
    },
    "band_gap": 4.6978,
    "is_direct": true,
    "formula": "Na2ZrSi2O7"
}