{
    "mp_id": "mp-5012",
    "nelements": 3,
    "nsites": 12,
    "elements": [
        "Li",
        "O",
        "Si"
    ],
    "structure": {
        "@module": "pymatgen.core.structure",
        "@class": "Structure",
        "charge": null,
        "lattice": {
            "matrix": [
                [
                    4.69899467,
                    -2.69458936,
                    0.0
                ],
                [
                    4.69899467,
                    2.69458936,
                    0.0
                ],
                [
                    0.0,
                    0.0,
                    4.67034259
                ]
            ],
            "a": 5.416766814965698,
            "b": 5.416766814965698,
            "c": 4.67034259,
            "alpha": 90.0,
            "beta": 90.0,
            "gamma": 59.66332876273844,
            "volume": 118.27045777201887
        },
        "sites": [
            {
                "species": [
                    {
                        "element": "Li",
                        "occu": 1
                    }
                ],
                "abc": [
                    0.51758226,
                    0.83026451,
                    0.49535185
                ],
                "xyz": [
                    6.3335247882067165,
                    0.8425502639108604,
                    2.313462842090291
                ],
                "label": "Li",
                "properties": {}
            },
            {
                "species": [
                    {
                        "element": "Li",
                        "occu": 1
                    }
                ],
                "abc": [
                    0.48241774,
                    0.16973549,
                    0.99535185
                ],
                "xyz": [
                    3.0644645517932845,
                    -0.84255026391086,
                    4.6486341370902915
                ],
                "label": "Li",
                "properties": {}
            },
            {
                "species": [
                    {
                        "element": "Li",
                        "occu": 1
                    }
                ],
                "abc": [
                    0.83026451,
                    0.51758226,
                    0.99535185
                ],
                "xyz": [
                    6.3335247882067165,
                    -0.8425502639108604,
                    4.6486341370902915
                ],
                "label": "Li",
                "properties": {}
            },
            {
                "species": [
                    {
                        "element": "Li",
                        "occu": 1
                    }
                ],
                "abc": [
                    0.16973549,
                    0.48241774,
                    0.49535185
                ],
                "xyz": [
                    3.0644645517932845,
                    0.84255026391086,
                    2.313462842090291
                ],
                "label": "Li",
                "properties": {}
            },
            {
                "species": [
                    {
                        "element": "Si",
                        "occu": 1
                    }
                ],
                "abc": [
                    0.17219149,
                    0.82780851,
                    0.99875864
                ],
                "xyz": [
                    4.69899467,
                    1.7666186463269071,
                    4.664545013522478
                ],
                "label": "Si",
                "properties": {}
            },
            {
                "species": [
                    {
                        "element": "Si",
                        "occu": 1
                    }
                ],
                "abc": [
                    0.82780851,
                    0.17219149,
                    0.49875864
                ],
                "xyz": [
                    4.69899467,
                    -1.7666186463269071,
                    2.3293737185224774
                ],
                "label": "Si",
                "properties": {}
            },
            {
                "species": [
                    {
                        "element": "O",
                        "occu": 1
                    }
                ],
                "abc": [
                    0.11653622,
                    0.88346378,
                    0.64235662
                ],
                "xyz": [
                    4.69899467,
                    2.066554843066762,
                    3.000025480354446
                ],
                "label": "O",
                "properties": {}
            },
            {
                "species": [
                    {
                        "element": "O",
                        "occu": 1
                    }
                ],
                "abc": [
                    0.16455569,
                    0.54405918,
                    0.08169252
                ],
                "xyz": [
                    3.329777497212743,
                    1.0226060662368663,
                    0.3815320554404268
                ],
                "label": "O",
                "properties": {}
            },
            {
                "species": [
                    {
                        "element": "O",
                        "occu": 1
                    }
                ],
                "abc": [
                    0.45594082,
                    0.83544431,
                    0.08169252
                ],
                "xyz": [
                    6.068211842787258,
                    1.0226060662368663,
                    0.3815320554404268
                ],
                "label": "O",
                "properties": {}
            },
            {
                "species": [
                    {
                        "element": "O",
                        "occu": 1
                    }
                ],
                "abc": [
                    0.88346378,
                    0.11653622,
                    0.14235662
                ],
                "xyz": [
                    4.69899467,
                    -2.066554843066762,
                    0.6648541853544457
                ],
                "label": "O",
                "properties": {}
            },
            {
                "species": [
                    {
                        "element": "O",
                        "occu": 1
                    }
                ],
                "abc": [
                    0.54405918,
                    0.16455569,
                    0.58169252
                ],
                "xyz": [
                    3.329777497212743,
                    -1.0226060662368663,
                    2.7167033504404268
                ],
                "label": "O",
                "properties": {}
            },
            {
                "species": [
                    {
                        "element": "O",
                        "occu": 1
                    }
                ],
                "abc": [
                    0.83544431,
                    0.45594082,
                    0.58169252
                ],
                "xyz": [
                    6.068211842787258,
                    -1.0226060662368663,
                    2.7167033504404268
                ],
                "label": "O",
                "properties": {}
            }
        ]
    },
    "spacegroup": {
        "source": "spglib",
        "symbol": "Cmc2_1",
        "number": 36,
        "point_group": "mm2",
        "crystal_system": "orthorhombic",
        "hall": "C 2c -2"
    },
    "dielectric": {
        "epsilon_ionic": [
            [
                2.92408878,
                -0.0,
                1.15e-06
            ],
            [
                -0.0,
                3.06686557,
                1.02e-06
            ],
            [
                1.15e-06,
                1.02e-06,
                4.83429957
            ]
        ],
        "epsilon_ionic_avg": 3.6084179733333333,
        "epsilon_ionic_eig": [
            2.9240887799993085,
            4.8342995700012805,
            3.066865569999411
        ],
        "epsilon_electronic": [
            [
                2.6541242,
                0.0,
                0.0
            ],
            [
                0.0,
                2.66510826,
                0.0
            ],
            [
                0.0,
                0.0,
                2.74553501
            ]
        ],
        "epsilon_electronic_avg": 2.6882558233333333,
        "epsilon_electronic_eig": [
            2.6541242,
            2.66510826,
            2.74553501
        ]
    },
    "phonon": {
        "lowest_freq": -0.04186066630767273,
        "frequency": [
            -0.04186066630767273,
            -0.02537728450308888,
            -0.014304348535438547,
            6.0018059715904215,
            6.637152729289778,
            6.947982507620854,
            7.360879776766439,
            9.184167511212694,
            9.463456813860232,
            9.90203635203242,
            10.076448339207232,
            10.44076541206533,
            10.483103829522667,
            10.708976862826493,
            10.835543172414678,
            11.718239175021965,
            11.762023177525464,
            12.324296888394334,
            12.744168624404956,
            12.950010069344499,
            13.04496741087089,
            14.47746520969199,
            14.653386446033773,
            14.989590260402242,
            15.181435668870893,
            15.453675841587247,
            16.05403717799088,
            16.74922056201536,
            17.61558145451753,
            21.253500402386837,
            24.743013761628053,
            26.26436712941525,
            27.00903539435115,
            28.571654077365075,
            30.319111433858552,
            30.349076381206334
        ]
    },
    "born_effective_charge": {
        "avg_abs_trace": 1.661604722222222,
        "tensors": [
            [
                [
                    1.05625,
                    0.06918,
                    0.02776
                ],
                [
                    -0.04926,
                    1.02118,
                    -0.01571
                ],
                [
                    -0.01469,
                    0.01843,
                    1.03962
                ]
            ],
            [
                [
                    1.05625,
                    0.06918,
                    -0.02776
                ],
                [
                    -0.04926,
                    1.02118,
                    0.01571
                ],
                [
                    0.01469,
                    -0.01843,
                    1.03962
                ]
            ],
            [
                [
                    1.05625,
                    -0.06918,
                    0.02776
                ],
                [
                    0.04926,
                    1.02118,
                    0.01571
                ],
                [
                    -0.01469,
                    -0.01843,
                    1.03962
                ]
            ],
            [
                [
                    1.05625,
                    -0.06918,
                    -0.02776
                ],
                [
                    0.04926,
                    1.02118,
                    -0.01571
                ],
                [
                    0.01469,
                    0.01843,
                    1.03962
                ]
            ],
            [
                [
                    2.6952,
                    0.0,
                    0.0
                ],
                [
                    0.0,
                    2.89206,
                    -0.20461
                ],
                [
                    0.0,
                    0.18508,
                    3.13307
                ]
            ],
            [
                [
                    2.6952,
                    -0.0,
                    0.0
                ],
                [
                    0.0,
                    2.89205,
                    0.20461
                ],
                [
                    0.0,
                    -0.18508,
                    3.13307
                ]
            ],
            [
                [
                    -1.12566,
                    0.0,
                    -0.0
                ],
                [
                    0.0,
                    -1.83869,
                    0.48992
                ],
                [
                    0.0,
                    0.56257,
                    -2.28076
                ]
            ],
            [
                [
                    -1.84102,
                    -0.19601,
                    0.10317
                ],
                [
                    -0.30481,
                    -1.54787,
                    0.09708
                ],
                [
                    0.09524,
                    0.02832,
                    -1.46578
                ]
            ],
            [
                [
                    -1.84103,
                    0.19602,
                    -0.10317
                ],
                [
                    0.30481,
                    -1.54787,
                    0.09708
                ],
                [
                    -0.09524,
                    0.02832,
                    -1.46578
                ]
            ],
            [
                [
                    -1.12566,
                    -0.0,
                    -0.0
                ],
                [
                    0.0,
                    -1.83869,
                    -0.48992
                ],
                [
                    0.0,
                    -0.56257,
                    -2.28076
                ]
            ],
            [
                [
                    -1.84102,
                    0.19601,
                    0.10317
                ],
                [
                    0.30481,
                    -1.54787,
                    -0.09708
                ],
                [
                    0.09524,
                    -0.02832,
                    -1.46578
                ]
            ],
            [
                [
                    -1.84103,
                    -0.19602,
                    -0.10317
                ],
                [
                    -0.30481,
                    -1.54787,
                    -0.09708
                ],
                [
                    -0.09524,
                    -0.02832,
                    -1.46578
                ]
            ]
        ]
    },
    "band_gap": 5.1438999999999995,
    "is_direct": false,
    "formula": "Li2SiO3"
}