{
    "mp_id": "mp-557498",
    "nelements": 4,
    "nsites": 36,
    "elements": [
        "Au",
        "Bi",
        "Na",
        "O"
    ],
    "structure": {
        "@module": "pymatgen.core.structure",
        "@class": "Structure",
        "charge": null,
        "lattice": {
            "matrix": [
                [
                    12.30594476,
                    0.0,
                    0.0
                ],
                [
                    0.0,
                    12.30594476,
                    0.0
                ],
                [
                    0.0,
                    0.0,
                    3.56277311
                ]
            ],
            "a": 12.30594476,
            "b": 12.30594476,
            "c": 3.56277311,
            "alpha": 90.0,
            "beta": 90.0,
            "gamma": 90.0,
            "volume": 539.5330935653183
        },
        "sites": [
            {
                "species": [
                    {
                        "element": "Na",
                        "occu": 1
                    }
                ],
                "abc": [
                    0.69897686,
                    0.80102314,
                    0.5
                ],
                "xyz": [
                    8.601570627678253,
                    9.857346512321746,
                    1.781386555
                ],
                "label": "Na",
                "properties": {}
            },
            {
                "species": [
                    {
                        "element": "Na",
                        "occu": 1
                    }
                ],
                "abc": [
                    0.19897686,
                    0.69897686,
                    0.5
                ],
                "xyz": [
                    2.4485982476782535,
                    8.601570627678253,
                    1.781386555
                ],
                "label": "Na",
                "properties": {}
            },
            {
                "species": [
                    {
                        "element": "Na",
                        "occu": 1
                    }
                ],
                "abc": [
                    0.30102314,
                    0.19897686,
                    0.5
                ],
                "xyz": [
                    3.7043741323217465,
                    2.4485982476782535,
                    1.781386555
                ],
                "label": "Na",
                "properties": {}
            },
            {
                "species": [
                    {
                        "element": "Na",
                        "occu": 1
                    }
                ],
                "abc": [
                    0.80102314,
                    0.30102314,
                    0.5
                ],
                "xyz": [
                    9.857346512321746,
                    3.7043741323217465,
                    1.781386555
                ],
                "label": "Na",
                "properties": {}
            },
            {
                "species": [
                    {
                        "element": "Bi",
                        "occu": 1
                    }
                ],
                "abc": [
                    0.95080673,
                    0.76982003,
                    0.0
                ],
                "xyz": [
                    11.700575096816234,
                    9.473362764321543,
                    0.0
                ],
                "label": "Bi",
                "properties": {}
            },
            {
                "species": [
                    {
                        "element": "Bi",
                        "occu": 1
                    }
                ],
                "abc": [
                    0.73017997,
                    0.54919327,
                    0.0
                ],
                "xyz": [
                    8.985554375678456,
                    6.758342043183764,
                    0.0
                ],
                "label": "Bi",
                "properties": {}
            },
            {
                "species": [
                    {
                        "element": "Bi",
                        "occu": 1
                    }
                ],
                "abc": [
                    0.23017997,
                    0.95080673,
                    0.0
                ],
                "xyz": [
                    2.8325819956784573,
                    11.700575096816234,
                    0.0
                ],
                "label": "Bi",
                "properties": {}
            },
            {
                "species": [
                    {
                        "element": "Bi",
                        "occu": 1
                    }
                ],
                "abc": [
                    0.54919327,
                    0.26982003,
                    0.0
                ],
                "xyz": [
                    6.758342043183764,
                    3.3203903843215423,
                    0.0
                ],
                "label": "Bi",
                "properties": {}
            },
            {
                "species": [
                    {
                        "element": "Bi",
                        "occu": 1
                    }
                ],
                "abc": [
                    0.04919327,
                    0.23017997,
                    0.0
                ],
                "xyz": [
                    0.6053696631837652,
                    2.8325819956784573,
                    0.0
                ],
                "label": "Bi",
                "properties": {}
            },
            {
                "species": [
                    {
                        "element": "Bi",
                        "occu": 1
                    }
                ],
                "abc": [
                    0.45080673,
                    0.73017997,
                    0.0
                ],
                "xyz": [
                    5.547602716816234,
                    8.985554375678456,
                    0.0
                ],
                "label": "Bi",
                "properties": {}
            },
            {
                "species": [
                    {
                        "element": "Bi",
                        "occu": 1
                    }
                ],
                "abc": [
                    0.76982003,
                    0.04919327,
                    0.0
                ],
                "xyz": [
                    9.473362764321543,
                    0.6053696631837652,
                    0.0
                ],
                "label": "Bi",
                "properties": {}
            },
            {
                "species": [
                    {
                        "element": "Bi",
                        "occu": 1
                    }
                ],
                "abc": [
                    0.26982003,
                    0.45080673,
                    0.0
                ],
                "xyz": [
                    3.3203903843215423,
                    5.547602716816234,
                    0.0
                ],
                "label": "Bi",
                "properties": {}
            },
            {
                "species": [
                    {
                        "element": "Au",
                        "occu": 1
                    }
                ],
                "abc": [
                    0.0,
                    0.5,
                    0.5
                ],
                "xyz": [
                    0.0,
                    6.15297238,
                    1.781386555
                ],
                "label": "Au",
                "properties": {}
            },
            {
                "species": [
                    {
                        "element": "Au",
                        "occu": 1
                    }
                ],
                "abc": [
                    0.0,
                    0.0,
                    0.5
                ],
                "xyz": [
                    0.0,
                    0.0,
                    1.781386555
                ],
                "label": "Au",
                "properties": {}
            },
            {
                "species": [
                    {
                        "element": "Au",
                        "occu": 1
                    }
                ],
                "abc": [
                    0.5,
                    0.5,
                    0.5
                ],
                "xyz": [
                    6.15297238,
                    6.15297238,
                    1.781386555
                ],
                "label": "Au",
                "properties": {}
            },
            {
                "species": [
                    {
                        "element": "Au",
                        "occu": 1
                    }
                ],
                "abc": [
                    0.5,
                    0.0,
                    0.5
                ],
                "xyz": [
                    6.15297238,
                    0.0,
                    1.781386555
                ],
                "label": "Au",
                "properties": {}
            },
            {
                "species": [
                    {
                        "element": "O",
                        "occu": 1
                    }
                ],
                "abc": [
                    0.4957678,
                    0.16103648,
                    0.5
                ],
                "xyz": [
                    6.100891160586728,
                    1.9817060272248448,
                    1.781386555
                ],
                "label": "O",
                "properties": {}
            },
            {
                "species": [
                    {
                        "element": "O",
                        "occu": 1
                    }
                ],
                "abc": [
                    0.78618079,
                    0.71381921,
                    0.0
                ],
                "xyz": [
                    9.67469737311316,
                    8.784219766886839,
                    0.0
                ],
                "label": "O",
                "properties": {}
            },
            {
                "species": [
                    {
                        "element": "O",
                        "occu": 1
                    }
                ],
                "abc": [
                    0.88728079,
                    0.11705513,
                    0.5
                ],
                "xyz": [
                    10.91882838834916,
                    1.4404739636546187,
                    1.781386555
                ],
                "label": "O",
                "properties": {}
            },
            {
                "species": [
                    {
                        "element": "O",
                        "occu": 1
                    }
                ],
                "abc": [
                    0.38728079,
                    0.38294487,
                    0.5
                ],
                "xyz": [
                    4.76585600834916,
                    4.7124984163453805,
                    1.781386555
                ],
                "label": "O",
                "properties": {}
            },
            {
                "species": [
                    {
                        "element": "O",
                        "occu": 1
                    }
                ],
                "abc": [
                    0.66103648,
                    0.9957678,
                    0.5
                ],
                "xyz": [
                    8.134678407224845,
                    12.253863540586726,
                    1.781386555
                ],
                "label": "O",
                "properties": {}
            },
            {
                "species": [
                    {
                        "element": "O",
                        "occu": 1
                    }
                ],
                "abc": [
                    0.83896352,
                    0.4957678,
                    0.5
                ],
                "xyz": [
                    10.324238732775154,
                    6.100891160586728,
                    1.781386555
                ],
                "label": "O",
                "properties": {}
            },
            {
                "species": [
                    {
                        "element": "O",
                        "occu": 1
                    }
                ],
                "abc": [
                    0.11705513,
                    0.11271921,
                    0.5
                ],
                "xyz": [
                    1.4404739636546187,
                    1.3871163716508395,
                    1.781386555
                ],
                "label": "O",
                "properties": {}
            },
            {
                "species": [
                    {
                        "element": "O",
                        "occu": 1
                    }
                ],
                "abc": [
                    0.5042322,
                    0.83896352,
                    0.5
                ],
                "xyz": [
                    6.205053599413271,
                    10.324238732775154,
                    1.781386555
                ],
                "label": "O",
                "properties": {}
            },
            {
                "species": [
                    {
                        "element": "O",
                        "occu": 1
                    }
                ],
                "abc": [
                    0.0042322,
                    0.66103648,
                    0.5
                ],
                "xyz": [
                    0.052081219413272,
                    8.134678407224845,
                    1.781386555
                ],
                "label": "O",
                "properties": {}
            },
            {
                "species": [
                    {
                        "element": "O",
                        "occu": 1
                    }
                ],
                "abc": [
                    0.71381921,
                    0.21381921,
                    0.0
                ],
                "xyz": [
                    8.784219766886839,
                    2.6312473868868396,
                    0.0
                ],
                "label": "O",
                "properties": {}
            },
            {
                "species": [
                    {
                        "element": "O",
                        "occu": 1
                    }
                ],
                "abc": [
                    0.21381921,
                    0.28618079,
                    0.0
                ],
                "xyz": [
                    2.6312473868868396,
                    3.5217249931131605,
                    0.0
                ],
                "label": "O",
                "properties": {}
            },
            {
                "species": [
                    {
                        "element": "O",
                        "occu": 1
                    }
                ],
                "abc": [
                    0.16103648,
                    0.5042322,
                    0.5
                ],
                "xyz": [
                    1.9817060272248448,
                    6.205053599413271,
                    1.781386555
                ],
                "label": "O",
                "properties": {}
            },
            {
                "species": [
                    {
                        "element": "O",
                        "occu": 1
                    }
                ],
                "abc": [
                    0.38294487,
                    0.61271921,
                    0.5
                ],
                "xyz": [
                    4.7124984163453805,
                    7.540088751650838,
                    1.781386555
                ],
                "label": "O",
                "properties": {}
            },
            {
                "species": [
                    {
                        "element": "O",
                        "occu": 1
                    }
                ],
                "abc": [
                    0.61271921,
                    0.61705513,
                    0.5
                ],
                "xyz": [
                    7.540088751650838,
                    7.593446343654619,
                    1.781386555
                ],
                "label": "O",
                "properties": {}
            },
            {
                "species": [
                    {
                        "element": "O",
                        "occu": 1
                    }
                ],
                "abc": [
                    0.61705513,
                    0.38728079,
                    0.5
                ],
                "xyz": [
                    7.593446343654619,
                    4.76585600834916,
                    1.781386555
                ],
                "label": "O",
                "properties": {}
            },
            {
                "species": [
                    {
                        "element": "O",
                        "occu": 1
                    }
                ],
                "abc": [
                    0.88294487,
                    0.88728079,
                    0.5
                ],
                "xyz": [
                    10.865470796345381,
                    10.91882838834916,
                    1.781386555
                ],
                "label": "O",
                "properties": {}
            },
            {
                "species": [
                    {
                        "element": "O",
                        "occu": 1
                    }
                ],
                "abc": [
                    0.28618079,
                    0.78618079,
                    0.0
                ],
                "xyz": [
                    3.5217249931131605,
                    9.67469737311316,
                    0.0
                ],
                "label": "O",
                "properties": {}
            },
            {
                "species": [
                    {
                        "element": "O",
                        "occu": 1
                    }
                ],
                "abc": [
                    0.11271921,
                    0.88294487,
                    0.5
                ],
                "xyz": [
                    1.3871163716508395,
                    10.865470796345381,
                    1.781386555
                ],
                "label": "O",
                "properties": {}
            },
            {
                "species": [
                    {
                        "element": "O",
                        "occu": 1
                    }
                ],
                "abc": [
                    0.9957678,
                    0.33896352,
                    0.5
                ],
                "xyz": [
                    12.253863540586726,
                    4.171266352775155,
                    1.781386555
                ],
                "label": "O",
                "properties": {}
            },
            {
                "species": [
                    {
                        "element": "O",
                        "occu": 1
                    }
                ],
                "abc": [
                    0.33896352,
                    0.0042322,
                    0.5
                ],
                "xyz": [
                    4.171266352775155,
                    0.052081219413272,
                    1.781386555
                ],
                "label": "O",
                "properties": {}
            }
        ]
    },
    "spacegroup": {
        "source": "spglib",
        "symbol": "P4/mbm",
        "number": 127,
        "point_group": "4/mmm",
        "crystal_system": "tetragonal",
        "hall": "-P 4 2ab"
    },
    "dielectric": {
        "epsilon_ionic": [
            [
                9.94352805,
                3e-08,
                5e-08
            ],
            [
                3e-08,
                9.94354921,
                5e-08
            ],
            [
                5e-08,
                5e-08,
                145.91106904
            ]
        ],
        "epsilon_ionic_avg": 55.266048766666664,
        "epsilon_ionic_eig": [
            145.91106903999997,
            9.943528049957465,
            9.943549210042532
        ],
        "epsilon_electronic": [
            [
                6.68036453,
                0.0,
                0.0
            ],
            [
                0.0,
                6.68036453,
                0.0
            ],
            [
                0.0,
                0.0,
                6.82464386
            ]
        ],
        "epsilon_electronic_avg": 6.728457639999999,
        "epsilon_electronic_eig": [
            6.68036453,
            6.68036453,
            6.82464386
        ]
    },
    "phonon": {
        "lowest_freq": -0.02873990064481321,
        "frequency": [
            -0.02873990064481321,
            -0.02873990064481321,
            -0.012358432771106794,
            0.7542276075304952,
            0.7542276075304952,
            1.0122149049796332,
            1.2426958478681738,
            1.2426958478681738,
            1.2788287774139797,
            1.2836035359772717,
            1.3324859210346818,
            1.5586154632702045,
            1.5586154632702045,
            1.6349442441613278,
            1.9899826928138509,
            1.9936184535479573,
            2.1608611350733775,
            2.2555167116259063,
            2.2555167116259063,
            2.4667314922966623,
            2.7194331490481174,
            2.7911993304679523,
            2.7911993304679523,
            2.8659386321772455,
            2.958212478709965,
            3.228412067411865,
            3.411624784619454,
            3.411624784619454,
            3.44035503207566,
            3.44035503207566,
            3.6507735565835313,
            3.6507735565835313,
            3.764350982111979,
            3.764350982111979,
            3.7675985793076325,
            3.9797989921103363,
            3.9797989921103363,
            4.135080950574359,
            4.381773742051874,
            4.386656774683809,
            4.573273132649571,
            4.573273132649571,
            4.666535349481089,
            4.8839739164915095,
            4.8839739164915095,
            5.071672506660803,
            5.071672506660803,
            5.13272851246306,
            5.676023391215946,
            5.858060998955622,
            6.228927481355065,
            6.234889645722719,
            6.291586914304764,
            6.291586914304764,
            6.790707645119761,
            7.103614373807994,
            7.215520384105446,
            7.382709987090318,
            7.418858681792217,
            7.798972600295086,
            7.942117701533811,
            7.942117701533811,
            7.9709900035365315,
            8.034475036595657,
            9.18210468544341,
            9.18210468544341,
            9.18829852956615,
            9.18829852956615,
            9.273688898586057,
            9.273688898586057,
            9.36975424625645,
            9.790683983369252,
            10.156263218186584,
            10.156263218186584,
            10.408722149684118,
            10.434700232708886,
            10.434700232708886,
            10.505866318312979,
            10.532221703440397,
            10.595758682524087,
            10.595758682524087,
            10.870386236742192,
            10.897035417593502,
            10.95624918700411,
            11.382812225168346,
            11.653884428713209,
            11.653884428713209,
            13.101028571470495,
            15.506087629154596,
            15.506087629154596,
            15.876580011744354,
            16.43388923926179,
            16.442770756212013,
            16.442770756212013,
            16.870852688527613,
            16.926535895982777,
            17.010380463825225,
            17.010380463825225,
            17.075331534192433,
            17.473781881583136,
            18.495019672055133,
            18.825830568468827,
            18.825830568468827,
            19.195662610134928,
            19.204552424196198,
            19.374352556208454,
            19.374352556208454,
            19.669859342775915
        ]
    },
    "born_effective_charge": {
        "avg_abs_trace": 2.6667666666666667,
        "tensors": [
            [
                [
                    1.28951,
                    0.02855,
                    0.0
                ],
                [
                    0.02854,
                    1.28955,
                    0.0
                ],
                [
                    4e-05,
                    -4e-05,
                    0.88087
                ]
            ],
            [
                [
                    1.28951,
                    -0.02855,
                    0.0
                ],
                [
                    -0.02855,
                    1.28952,
                    0.0
                ],
                [
                    4e-05,
                    4e-05,
                    0.88087
                ]
            ],
            [
                [
                    1.28954,
                    0.02854,
                    0.0
                ],
                [
                    0.02855,
                    1.28952,
                    0.0
                ],
                [
                    -4e-05,
                    4e-05,
                    0.88087
                ]
            ],
            [
                [
                    1.28954,
                    -0.02854,
                    0.0
                ],
                [
                    -0.02854,
                    1.28955,
                    0.0
                ],
                [
                    -4e-05,
                    -4e-05,
                    0.88087
                ]
            ],
            [
                [
                    3.32719,
                    0.34995,
                    0.0
                ],
                [
                    0.23264,
                    4.64277,
                    0.0
                ],
                [
                    -0.00034,
                    0.00122,
                    5.78514
                ]
            ],
            [
                [
                    4.64335,
                    0.23288,
                    0.0
                ],
                [
                    0.35022,
                    3.32738,
                    0.0
                ],
                [
                    -0.00122,
                    0.00034,
                    5.78514
                ]
            ],
            [
                [
                    4.64335,
                    -0.23288,
                    0.0
                ],
                [
                    -0.34996,
                    3.32719,
                    0.0
                ],
                [
                    -0.00122,
                    -0.00034,
                    5.78514
                ]
            ],
            [
                [
                    3.32739,
                    -0.35023,
                    0.0
                ],
                [
                    -0.23264,
                    4.64277,
                    0.0
                ],
                [
                    0.00034,
                    0.00122,
                    5.78514
                ]
            ],
            [
                [
                    3.32739,
                    0.35023,
                    0.0
                ],
                [
                    0.2329,
                    4.64335,
                    0.0
                ],
                [
                    0.00034,
                    -0.00122,
                    5.78514
                ]
            ],
            [
                [
                    3.32719,
                    -0.34995,
                    0.0
                ],
                [
                    -0.2329,
                    4.64335,
                    0.0
                ],
                [
                    -0.00034,
                    -0.00122,
                    5.78514
                ]
            ],
            [
                [
                    4.64277,
                    -0.23261,
                    0.0
                ],
                [
                    -0.35022,
                    3.32738,
                    0.0
                ],
                [
                    0.00122,
                    0.00034,
                    5.78514
                ]
            ],
            [
                [
                    4.64277,
                    0.23261,
                    0.0
                ],
                [
                    0.34996,
                    3.32719,
                    0.0
                ],
                [
                    0.00122,
                    -0.00034,
                    5.78514
                ]
            ],
            [
                [
                    3.45341,
                    -0.21685,
                    0.0
                ],
                [
                    -0.21682,
                    3.4534,
                    0.0
                ],
                [
                    0.0,
                    -0.0,
                    -1.60889
                ]
            ],
            [
                [
                    2.48276,
                    -0.55321,
                    0.0
                ],
                [
                    0.55322,
                    2.48276,
                    0.0
                ],
                [
                    0.0,
                    -0.0,
                    -0.20257
                ]
            ],
            [
                [
                    2.48276,
                    0.55321,
                    0.0
                ],
                [
                    -0.55322,
                    2.48276,
                    0.0
                ],
                [
                    0.0,
                    -0.0,
                    -0.20257
                ]
            ],
            [
                [
                    3.45341,
                    0.21685,
                    0.0
                ],
                [
                    0.21682,
                    3.4534,
                    0.0
                ],
                [
                    0.0,
                    -0.0,
                    -1.60889
                ]
            ],
            [
                [
                    -0.75325,
                    -0.54268,
                    0.0
                ],
                [
                    -0.39812,
                    -3.73096,
                    0.0
                ],
                [
                    -0.00066,
                    -0.00144,
                    -2.34651
                ]
            ],
            [
                [
                    -2.92483,
                    -1.59772,
                    0.0
                ],
                [
                    -1.59786,
                    -2.92452,
                    0.0
                ],
                [
                    4e-05,
                    -4e-05,
                    -1.07701
                ]
            ],
            [
                [
                    -3.10446,
                    -0.07091,
                    0.0
                ],
                [
                    -0.0321,
                    -1.71496,
                    0.0
                ],
                [
                    0.0002,
                    -0.00011,
                    -2.8877
                ]
            ],
            [
                [
                    -3.10446,
                    0.07091,
                    0.0
                ],
                [
                    0.03195,
                    -1.7149,
                    0.0
                ],
                [
                    0.0002,
                    0.00011,
                    -2.8877
                ]
            ],
            [
                [
                    -3.73097,
                    -0.39813,
                    0.0
                ],
                [
                    -0.54267,
                    -0.75324,
                    0.0
                ],
                [
                    -0.00144,
                    -0.00066,
                    -2.34651
                ]
            ],
            [
                [
                    -3.73059,
                    0.39757,
                    0.0
                ],
                [
                    0.54267,
                    -0.75324,
                    0.0
                ],
                [
                    0.00144,
                    -0.00066,
                    -2.34651
                ]
            ],
            [
                [
                    -1.71497,
                    0.0321,
                    0.0
                ],
                [
                    0.07133,
                    -3.10451,
                    0.0
                ],
                [
                    -0.00011,
                    -0.0002,
                    -2.8877
                ]
            ],
            [
                [
                    -0.75297,
                    -0.54213,
                    0.0
                ],
                [
                    -0.39755,
                    -3.73058,
                    0.0
                ],
                [
                    0.00066,
                    0.00144,
                    -2.34651
                ]
            ],
            [
                [
                    -0.75297,
                    0.54213,
                    0.0
                ],
                [
                    0.39812,
                    -3.73096,
                    0.0
                ],
                [
                    0.00066,
                    -0.00144,
                    -2.34651
                ]
            ],
            [
                [
                    -2.9245,
                    1.59785,
                    0.0
                ],
                [
                    1.59786,
                    -2.92452,
                    0.0
                ],
                [
                    -4e-05,
                    -4e-05,
                    -1.07701
                ]
            ],
            [
                [
                    -2.9245,
                    -1.59785,
                    0.0
                ],
                [
                    -1.59769,
                    -2.92482,
                    0.0
                ],
                [
                    -4e-05,
                    4e-05,
                    -1.07701
                ]
            ],
            [
                [
                    -3.73097,
                    0.39813,
                    0.0
                ],
                [
                    0.54213,
                    -0.75297,
                    0.0
                ],
                [
                    -0.00144,
                    0.00066,
                    -2.34651
                ]
            ],
            [
                [
                    -1.7149,
                    -0.03194,
                    0.0
                ],
                [
                    -0.07133,
                    -3.10451,
                    0.0
                ],
                [
                    0.00011,
                    -0.0002,
                    -2.8877
                ]
            ],
            [
                [
                    -3.10449,
                    0.07132,
                    0.0
                ],
                [
                    0.0321,
                    -1.71496,
                    0.0
                ],
                [
                    -0.0002,
                    -0.00011,
                    -2.8877
                ]
            ],
            [
                [
                    -1.71497,
                    -0.0321,
                    0.0
                ],
                [
                    -0.07091,
                    -3.10447,
                    0.0
                ],
                [
                    -0.00011,
                    0.0002,
                    -2.8877
                ]
            ],
            [
                [
                    -1.7149,
                    0.03194,
                    0.0
                ],
                [
                    0.07091,
                    -3.10447,
                    0.0
                ],
                [
                    0.00011,
                    0.0002,
                    -2.8877
                ]
            ],
            [
                [
                    -2.92483,
                    1.59772,
                    0.0
                ],
                [
                    1.59769,
                    -2.92482,
                    0.0
                ],
                [
                    4e-05,
                    4e-05,
                    -1.07701
                ]
            ],
            [
                [
                    -3.10449,
                    -0.07132,
                    0.0
                ],
                [
                    -0.03195,
                    -1.7149,
                    0.0
                ],
                [
                    -0.0002,
                    0.00011,
                    -2.8877
                ]
            ],
            [
                [
                    -0.75325,
                    0.54268,
                    0.0
                ],
                [
                    0.39755,
                    -3.73058,
                    0.0
                ],
                [
                    -0.00066,
                    0.00144,
                    -2.34651
                ]
            ],
            [
                [
                    -3.73059,
                    -0.39757,
                    0.0
                ],
                [
                    -0.54213,
                    -0.75297,
                    0.0
                ],
                [
                    0.00144,
                    0.00066,
                    -2.34651
                ]
            ]
        ]
    },
    "band_gap": 0.8548,
    "is_direct": false,
    "formula": "NaBi2AuO5"
}