{
    "mp_id": "mp-556719",
    "nelements": 4,
    "nsites": 30,
    "elements": [
        "K",
        "O",
        "Si",
        "Ti"
    ],
    "structure": {
        "@module": "pymatgen.core.structure",
        "@class": "Structure",
        "charge": null,
        "lattice": {
            "matrix": [
                [
                    5.05875663,
                    2.92067623,
                    4.94561591
                ],
                [
                    -5.05875788,
                    2.92067406,
                    4.94561591
                ],
                [
                    1.25e-06,
                    -5.84134929,
                    4.94561591
                ]
            ],
            "a": 7.653788931718793,
            "b": 7.653788929834954,
            "c": 7.653788490481704,
            "alpha": 82.74444248133732,
            "beta": 82.74444251156285,
            "gamma": 82.74444092229245,
            "volume": 438.42840214143337
        },
        "sites": [
            {
                "species": [
                    {
                        "element": "K",
                        "occu": 1
                    }
                ],
                "abc": [
                    0.76985555,
                    0.22851965,
                    0.98917656
                ],
                "xyz": [
                    2.7384875240031548,
                    -2.8621955770667866,
                    9.829667606204502
                ],
                "label": "K",
                "properties": {}
            },
            {
                "species": [
                    {
                        "element": "K",
                        "occu": 1
                    }
                ],
                "abc": [
                    0.98917656,
                    0.76985555,
                    0.22851965
                ],
                "xyz": [
                    1.1094909367659211,
                    3.8026985056186535,
                    9.829667606204502
                ],
                "label": "K",
                "properties": {}
            },
            {
                "species": [
                    {
                        "element": "K",
                        "occu": 1
                    }
                ],
                "abc": [
                    0.22851965,
                    0.98917656,
                    0.76985555
                ],
                "xyz": [
                    -3.8479784607690752,
                    -0.9405009410001064,
                    9.829667606204502
                ],
                "label": "K",
                "properties": {}
            },
            {
                "species": [
                    {
                        "element": "K",
                        "occu": 1
                    }
                ],
                "abc": [
                    0.49815016,
                    0.49815016,
                    0.49815016
                ],
                "xyz": [
                    3.7485379553268017e-16,
                    4.981501602330241e-07,
                    7.390978070595137
                ],
                "label": "K",
                "properties": {}
            },
            {
                "species": [
                    {
                        "element": "Ti",
                        "occu": 1
                    }
                ],
                "abc": [
                    0.22217043,
                    0.22217043,
                    0.22217043
                ],
                "xyz": [
                    4.461513115601532e-17,
                    2.2217043005312576e-07,
                    3.296308840018624
                ],
                "label": "Ti",
                "properties": {}
            },
            {
                "species": [
                    {
                        "element": "Ti",
                        "occu": 1
                    }
                ],
                "abc": [
                    0.73973577,
                    0.73973577,
                    0.73973577
                ],
                "xyz": [
                    1.4561332808336836e-16,
                    7.397357704164165e-07,
                    10.975346979924302
                ],
                "label": "Ti",
                "properties": {}
            },
            {
                "species": [
                    {
                        "element": "Si",
                        "occu": 1
                    }
                ],
                "abc": [
                    0.51078059,
                    0.89186252,
                    0.09738224
                ],
                "xyz": [
                    -1.927801733061046,
                    3.5278207767259975,
                    7.418549236363319
                ],
                "label": "Si",
                "properties": {}
            },
            {
                "species": [
                    {
                        "element": "Si",
                        "occu": 1
                    }
                ],
                "abc": [
                    0.89186252,
                    0.09738224,
                    0.51078059
                ],
                "xyz": [
                    4.019082900602194,
                    -0.09438439187768699,
                    7.418549236363319
                ],
                "label": "Si",
                "properties": {}
            },
            {
                "species": [
                    {
                        "element": "Si",
                        "occu": 1
                    }
                ],
                "abc": [
                    0.09738224,
                    0.51078059,
                    0.89186252
                ],
                "xyz": [
                    -2.091281167541148,
                    -3.4334348848229603,
                    7.418549236363319
                ],
                "label": "Si",
                "properties": {}
            },
            {
                "species": [
                    {
                        "element": "Si",
                        "occu": 1
                    }
                ],
                "abc": [
                    0.54849682,
                    0.01743278,
                    0.43692289
                ],
                "xyz": [
                    2.686524257667223,
                    -0.8993221205419726,
                    4.959723229927116
                ],
                "label": "Si",
                "properties": {}
            },
            {
                "species": [
                    {
                        "element": "Si",
                        "occu": 1
                    }
                ],
                "abc": [
                    0.01743278,
                    0.43692289,
                    0.54849682
                ],
                "xyz": [
                    -2.122098235714517,
                    -1.8769366528622051,
                    4.959723229927116
                ],
                "label": "Si",
                "properties": {}
            },
            {
                "species": [
                    {
                        "element": "Si",
                        "occu": 1
                    }
                ],
                "abc": [
                    0.43692289,
                    0.54849682,
                    0.01743278
                ],
                "xyz": [
                    -0.5644260219527053,
                    2.776259776256668,
                    4.959723229927115
                ],
                "label": "Si",
                "properties": {}
            },
            {
                "species": [
                    {
                        "element": "O",
                        "occu": 1
                    }
                ],
                "abc": [
                    0.09955123,
                    0.32098353,
                    0.01300135
                ],
                "xyz": [
                    -1.1201725006988739,
                    1.1522997542949531,
                    2.1441030831755103
                ],
                "label": "O",
                "properties": {}
            },
            {
                "species": [
                    {
                        "element": "O",
                        "occu": 1
                    }
                ],
                "abc": [
                    0.15880337,
                    0.47467903,
                    0.68277107
                ],
                "xyz": [
                    -1.5979378291655755,
                    -2.138108347227184,
                    6.509684102824708
                ],
                "label": "O",
                "properties": {}
            },
            {
                "species": [
                    {
                        "element": "O",
                        "occu": 1
                    }
                ],
                "abc": [
                    0.47467903,
                    0.68277107,
                    0.15880337
                ],
                "xyz": [
                    -1.05268764195985,
                    2.452909560268794,
                    6.509684102824708
                ],
                "label": "O",
                "properties": {}
            },
            {
                "species": [
                    {
                        "element": "O",
                        "occu": 1
                    }
                ],
                "abc": [
                    0.95007916,
                    0.24175021,
                    0.62994999
                ],
                "xyz": [
                    3.5832642572831643,
                    -0.19881074024508738,
                    9.009820987325618
                ],
                "label": "O",
                "properties": {}
            },
            {
                "species": [
                    {
                        "element": "O",
                        "occu": 1
                    }
                ],
                "abc": [
                    0.62994999,
                    0.95007916,
                    0.24175021
                ],
                "xyz": [
                    -1.6194564466050851,
                    3.2026041018994764,
                    9.009820987325618
                ],
                "label": "O",
                "properties": {}
            },
            {
                "species": [
                    {
                        "element": "O",
                        "occu": 1
                    }
                ],
                "abc": [
                    0.84569678,
                    0.58415892,
                    0.55443776
                ],
                "xyz": [
                    1.3230563461195626,
                    0.9374796719699643,
                    9.813553305884948
                ],
                "label": "O",
                "properties": {}
            },
            {
                "species": [
                    {
                        "element": "O",
                        "occu": 1
                    }
                ],
                "abc": [
                    0.90813088,
                    0.63037529,
                    0.90847761
                ],
                "xyz": [
                    1.405098280059962,
                    -0.8132580096414372,
                    12.101841913879941
                ],
                "label": "O",
                "properties": {}
            },
            {
                "species": [
                    {
                        "element": "O",
                        "occu": 1
                    }
                ],
                "abc": [
                    0.90847761,
                    0.90813088,
                    0.63037529
                ],
                "xyz": [
                    0.0017536754918333474,
                    1.623481012640139,
                    12.101841913879941
                ],
                "label": "O",
                "properties": {}
            },
            {
                "species": [
                    {
                        "element": "O",
                        "occu": 1
                    }
                ],
                "abc": [
                    0.58415892,
                    0.55443776,
                    0.84569678
                ],
                "xyz": [
                    0.15035247927506637,
                    -1.6145392297053087,
                    9.813553305884948
                ],
                "label": "O",
                "properties": {}
            },
            {
                "species": [
                    {
                        "element": "O",
                        "occu": 1
                    }
                ],
                "abc": [
                    0.24175021,
                    0.62994999,
                    0.95007916
                ],
                "xyz": [
                    -1.9638078106780783,
                    -3.0037915398750297,
                    9.009820987325618
                ],
                "label": "O",
                "properties": {}
            },
            {
                "species": [
                    {
                        "element": "O",
                        "occu": 1
                    }
                ],
                "abc": [
                    0.63037529,
                    0.90847761,
                    0.90813088
                ],
                "xyz": [
                    -1.4068519555517942,
                    -0.8102205560149223,
                    12.101841913879941
                ],
                "label": "O",
                "properties": {}
            },
            {
                "species": [
                    {
                        "element": "O",
                        "occu": 1
                    }
                ],
                "abc": [
                    0.55443776,
                    0.84569678,
                    0.58415892
                ],
                "xyz": [
                    -1.4734088253946278,
                    0.6770615420288046,
                    9.813553305884948
                ],
                "label": "O",
                "properties": {}
            },
            {
                "species": [
                    {
                        "element": "O",
                        "occu": 1
                    }
                ],
                "abc": [
                    0.68277107,
                    0.15880337,
                    0.47467903
                ],
                "xyz": [
                    2.650625471125426,
                    -0.31479989678814,
                    6.509684102824707
                ],
                "label": "O",
                "properties": {}
            },
            {
                "species": [
                    {
                        "element": "O",
                        "occu": 1
                    }
                ],
                "abc": [
                    0.12149776,
                    0.42960138,
                    0.3518817
                ],
                "xyz": [
                    -1.5586213275516003,
                    -0.44588269212254583,
                    4.465796408729164
                ],
                "label": "O",
                "properties": {}
            },
            {
                "species": [
                    {
                        "element": "O",
                        "occu": 1
                    }
                ],
                "abc": [
                    0.42960138,
                    0.3518817,
                    0.12149776
                ],
                "xyz": [
                    0.3931646585015532,
                    1.5727474382073092,
                    4.465796408729164
                ],
                "label": "O",
                "properties": {}
            },
            {
                "species": [
                    {
                        "element": "O",
                        "occu": 1
                    }
                ],
                "abc": [
                    0.01300135,
                    0.09955123,
                    0.32098353
                ],
                "xyz": [
                    -0.43783450248532935,
                    -1.5462474860621893,
                    2.1441030831755103
                ],
                "label": "O",
                "properties": {}
            },
            {
                "species": [
                    {
                        "element": "O",
                        "occu": 1
                    }
                ],
                "abc": [
                    0.3518817,
                    0.12149776,
                    0.42960138
                ],
                "xyz": [
                    1.1654566690500476,
                    -1.1268638431039235,
                    4.465796408729164
                ],
                "label": "O",
                "properties": {}
            },
            {
                "species": [
                    {
                        "element": "O",
                        "occu": 1
                    }
                ],
                "abc": [
                    0.32098353,
                    0.01300135,
                    0.09955123
                ],
                "xyz": [
                    1.5580070031842035,
                    0.3939481653033463,
                    2.1441030831755103
                ],
                "label": "O",
                "properties": {}
            }
        ]
    },
    "spacegroup": {
        "source": "spglib",
        "symbol": "R3",
        "number": 146,
        "point_group": "3",
        "crystal_system": "trigonal",
        "hall": "R 3"
    },
    "dielectric": {
        "epsilon_ionic": [
            [
                5.45487383,
                4.991e-05,
                7.092e-05
            ],
            [
                4.991e-05,
                5.45475481,
                2.626e-05
            ],
            [
                7.092e-05,
                2.626e-05,
                7.00749324
            ]
        ],
        "epsilon_ionic_avg": 5.97237396,
        "epsilon_ionic_eig": [
            7.007493243683647,
            5.454891985153212,
            5.4547366511631425
        ],
        "epsilon_electronic": [
            [
                3.04387632,
                -6e-07,
                0.0
            ],
            [
                6e-07,
                3.04387692,
                0.0
            ],
            [
                0.0,
                0.0,
                2.82314217
            ]
        ],
        "epsilon_electronic_avg": 2.97029847,
        "epsilon_electronic_eig": [
            3.04387662,
            3.04387662,
            2.82314217
        ]
    },
    "phonon": {
        "lowest_freq": -0.14619673214381998,
        "frequency": [
            -0.14619673214381998,
            -0.0662212294059512,
            -0.06622122294729353,
            1.633965263325811,
            1.9005861555508652,
            1.9005861941284579,
            2.059770307309904,
            2.738510701036841,
            2.738510727810532,
            2.861453452151959,
            3.207524844917506,
            3.20752511922261,
            3.4415059483992523,
            3.4415060762270797,
            3.527126343049328,
            4.140323326844356,
            4.180606471183049,
            4.180606512105364,
            4.517940506526218,
            4.517940639060126,
            4.674705458015102,
            5.342801346148875,
            5.342801391892692,
            5.361312381661778,
            5.829554155741505,
            6.356131031344902,
            6.667880792918121,
            6.972818435074924,
            6.9728185752765555,
            7.314129199534689,
            7.314129366608665,
            7.964829167012014,
            7.964829320436603,
            8.318893307165526,
            8.318893454060142,
            8.727854987339388,
            8.921889949735899,
            8.921890045612498,
            9.093981643614152,
            9.363186798878049,
            9.36318691633812,
            10.03869395586574,
            10.107992086714654,
            10.107992171340804,
            10.547285648316088,
            10.754570882094203,
            10.754570961632519,
            11.134231013678239,
            11.398942667925377,
            12.475214332421965,
            12.475214400989962,
            13.496173651327204,
            13.496173741871434,
            14.051911213912485,
            14.051911335661114,
            14.49297074317736,
            14.839152369327412,
            14.839152402267317,
            15.092208826713081,
            15.394742053429875,
            15.61002512399438,
            15.610025264903902,
            16.161459904515134,
            16.16174911791039,
            16.16174964718506,
            17.322281609834114,
            20.08551723074393,
            21.576808006572925,
            21.57680828974749,
            22.267523191619976,
            22.267523795279704,
            23.275443056437606,
            26.494727932254253,
            26.763362401790385,
            26.763363360639012,
            27.124950541292993,
            27.124951081902555,
            27.45970374030546,
            27.98754727509315,
            27.987547930027624,
            28.224518040217685,
            28.2245187329491,
            28.317645234978368,
            29.188667881234434,
            29.188668090562356,
            29.25991870269672,
            29.718448831368352,
            29.718449407038005,
            30.15098364617166,
            32.54851403973139
        ]
    },
    "born_effective_charge": {
        "avg_abs_trace": 2.3432046666666664,
        "tensors": [
            [
                [
                    1.19835,
                    0.00517,
                    0.01879
                ],
                [
                    0.00133,
                    1.26827,
                    0.08531
                ],
                [
                    0.05123,
                    0.1301,
                    1.2203
                ]
            ],
            [
                [
                    1.25361,
                    0.03062,
                    -0.08329
                ],
                [
                    0.02673,
                    1.213,
                    -0.02636
                ],
                [
                    -0.13829,
                    -0.02068,
                    1.2203
                ]
            ],
            [
                [
                    1.24799,
                    -0.02995,
                    0.06451
                ],
                [
                    -0.03388,
                    1.21859,
                    -0.05896
                ],
                [
                    0.08706,
                    -0.10942,
                    1.2203
                ]
            ],
            [
                [
                    1.09651,
                    -0.00537,
                    0.0
                ],
                [
                    0.00544,
                    1.09649,
                    -0.0
                ],
                [
                    -0.0,
                    0.0,
                    1.44722
                ]
            ],
            [
                [
                    5.42118,
                    -0.49807,
                    1e-05
                ],
                [
                    0.49806,
                    5.42118,
                    5e-05
                ],
                [
                    -0.0,
                    0.0,
                    4.58695
                ]
            ],
            [
                [
                    5.49484,
                    0.01718,
                    2e-05
                ],
                [
                    -0.01725,
                    5.49478,
                    -4e-05
                ],
                [
                    -0.0,
                    0.0,
                    4.47056
                ]
            ],
            [
                [
                    3.81477,
                    0.87014,
                    -0.19188
                ],
                [
                    0.48639,
                    3.08718,
                    -0.32754
                ],
                [
                    -0.98137,
                    -0.44941,
                    3.12344
                ]
            ],
            [
                [
                    2.68171,
                    0.16778,
                    -0.18774
                ],
                [
                    -0.21592,
                    4.22023,
                    0.32994
                ],
                [
                    0.10148,
                    1.0746,
                    3.12344
                ]
            ],
            [
                [
                    3.85645,
                    -0.46234,
                    0.37957
                ],
                [
                    -0.84606,
                    3.04548,
                    -0.00239
                ],
                [
                    0.87989,
                    -0.62519,
                    3.12344
                ]
            ],
            [
                [
                    3.74197,
                    -0.5907,
                    0.69932
                ],
                [
                    -0.74866,
                    3.06752,
                    -0.17688
                ],
                [
                    0.77046,
                    -0.57655,
                    3.11637
                ]
            ],
            [
                [
                    3.81617,
                    0.70582,
                    -0.50282
                ],
                [
                    0.54793,
                    2.99337,
                    -0.51719
                ],
                [
                    -0.88453,
                    -0.37896,
                    3.11637
                ]
            ],
            [
                [
                    2.65618,
                    0.12178,
                    -0.19646
                ],
                [
                    -0.03617,
                    4.15333,
                    0.69406
                ],
                [
                    0.11408,
                    0.95551,
                    3.11637
                ]
            ],
            [
                [
                    -2.19891,
                    1.2364,
                    -0.59762
                ],
                [
                    1.18923,
                    -2.3425,
                    0.48908
                ],
                [
                    -0.72651,
                    0.65844,
                    -1.64696
                ]
            ],
            [
                [
                    -1.43618,
                    -0.21134,
                    -0.07975
                ],
                [
                    -0.14059,
                    -1.65611,
                    0.66266
                ],
                [
                    -0.11616,
                    0.76932,
                    -2.20394
                ]
            ],
            [
                [
                    -1.44875,
                    0.14783,
                    0.6137
                ],
                [
                    0.21861,
                    -1.64356,
                    -0.26227
                ],
                [
                    0.72433,
                    -0.28406,
                    -2.20394
                ]
            ],
            [
                [
                    -1.41985,
                    0.14856,
                    0.63482
                ],
                [
                    0.18265,
                    -1.69285,
                    -0.26689
                ],
                [
                    0.62747,
                    -0.45413,
                    -2.27
                ]
            ],
            [
                [
                    -1.4812,
                    -0.21812,
                    -0.08629
                ],
                [
                    -0.18397,
                    -1.63147,
                    0.68323
                ],
                [
                    0.07956,
                    0.77047,
                    -2.27
                ]
            ],
            [
                [
                    -3.0918,
                    -0.81856,
                    0.77834
                ],
                [
                    -0.60816,
                    -1.4578,
                    0.39473
                ],
                [
                    0.86637,
                    0.4615,
                    -1.55261
                ]
            ],
            [
                [
                    -3.20459,
                    0.50014,
                    -0.99916
                ],
                [
                    0.53471,
                    -1.28273,
                    0.33585
                ],
                [
                    -1.03415,
                    0.41139,
                    -1.6477
                ]
            ],
            [
                [
                    -1.31524,
                    0.55622,
                    0.20871
                ],
                [
                    0.59063,
                    -3.17217,
                    -1.03325
                ],
                [
                    0.16081,
                    -1.1013,
                    -1.6477
                ]
            ],
            [
                [
                    -1.2484,
                    -0.45591,
                    -0.04739
                ],
                [
                    -0.24553,
                    -3.30088,
                    -0.87149
                ],
                [
                    -0.03352,
                    -0.98105,
                    -1.55261
                ]
            ],
            [
                [
                    -1.7679,
                    0.01831,
                    -0.54856
                ],
                [
                    0.05252,
                    -1.34466,
                    -0.41637
                ],
                [
                    -0.70702,
                    -0.31634,
                    -2.27
                ]
            ],
            [
                [
                    -2.21132,
                    -1.1083,
                    0.79045
                ],
                [
                    -1.07356,
                    -2.27605,
                    0.69737
                ],
                [
                    0.87335,
                    0.68991,
                    -1.6477
                ]
            ],
            [
                [
                    -2.48401,
                    0.9588,
                    -0.73105
                ],
                [
                    1.1694,
                    -2.06541,
                    0.47667
                ],
                [
                    -0.83285,
                    0.51955,
                    -1.55261
                ]
            ],
            [
                [
                    -1.75355,
                    -0.04267,
                    -0.53402
                ],
                [
                    0.02817,
                    -1.33881,
                    -0.40037
                ],
                [
                    -0.60817,
                    -0.48526,
                    -2.20394
                ]
            ],
            [
                [
                    -2.42199,
                    -0.79118,
                    0.97077
                ],
                [
                    -0.87275,
                    -1.98103,
                    0.63478
                ],
                [
                    0.95681,
                    0.57687,
                    -1.64049
                ]
            ],
            [
                [
                    -1.37072,
                    0.26583,
                    0.06431
                ],
                [
                    0.18454,
                    -3.03246,
                    -1.15807
                ],
                [
                    0.02118,
                    -1.11706,
                    -1.64049
                ]
            ],
            [
                [
                    -1.25639,
                    -0.64509,
                    -0.12458
                ],
                [
                    -0.69225,
                    -3.28515,
                    -0.76211
                ],
                [
                    -0.20698,
                    -0.9584,
                    -1.64696
                ]
            ],
            [
                [
                    -2.8121,
                    0.64755,
                    -1.03517
                ],
                [
                    0.56619,
                    -1.59123,
                    0.52337
                ],
                [
                    -0.97799,
                    0.54018,
                    -1.64049
                ]
            ],
            [
                [
                    -3.3568,
                    -0.52052,
                    0.72246
                ],
                [
                    -0.56778,
                    -1.18454,
                    0.27309
                ],
                [
                    0.93348,
                    0.29995,
                    -1.64696
                ]
            ]
        ]
    },
    "band_gap": 3.6449000000000003,
    "is_direct": false,
    "formula": "K2Ti(SiO3)3"
}