{
    "mp_id": "mp-540949",
    "nelements": 4,
    "nsites": 30,
    "elements": [
        "Ba",
        "Nb",
        "O",
        "Sr"
    ],
    "structure": {
        "@module": "pymatgen.core.structure",
        "@class": "Structure",
        "charge": null,
        "lattice": {
            "matrix": [
                [
                    6.09119945,
                    -2.7e-07,
                    0.0
                ],
                [
                    -3.04559949,
                    5.27513339,
                    0.0
                ],
                [
                    0.0,
                    0.0,
                    15.56465982
                ]
            ],
            "a": 6.091199450000006,
            "b": 6.091199269091526,
            "c": 15.56465982,
            "alpha": 90.0,
            "beta": 90.0,
            "gamma": 120.00000096972518,
            "volume": 500.12191825863187
        },
        "sites": [
            {
                "species": [
                    {
                        "element": "Ba",
                        "occu": 1
                    }
                ],
                "abc": [
                    0.0,
                    0.0,
                    0.25
                ],
                "xyz": [
                    0.0,
                    0.0,
                    3.891164955
                ],
                "label": "Ba",
                "properties": {}
            },
            {
                "species": [
                    {
                        "element": "Ba",
                        "occu": 1
                    }
                ],
                "abc": [
                    0.0,
                    0.0,
                    0.75
                ],
                "xyz": [
                    0.0,
                    0.0,
                    11.673494864999999
                ],
                "label": "Ba",
                "properties": {}
            },
            {
                "species": [
                    {
                        "element": "Ba",
                        "occu": 1
                    }
                ],
                "abc": [
                    0.333333,
                    0.666667,
                    0.12232293
                ],
                "xyz": [
                    -2.888932979949743e-06,
                    3.5167572617112195,
                    1.9039147936356724
                ],
                "label": "Ba",
                "properties": {}
            },
            {
                "species": [
                    {
                        "element": "Ba",
                        "occu": 1
                    }
                ],
                "abc": [
                    0.666667,
                    0.333333,
                    0.62232293
                ],
                "xyz": [
                    3.045602848932981,
                    1.7583758582887798,
                    9.686244703635673
                ],
                "label": "Ba",
                "properties": {}
            },
            {
                "species": [
                    {
                        "element": "Ba",
                        "occu": 1
                    }
                ],
                "abc": [
                    0.666667,
                    0.333333,
                    0.87767707
                ],
                "xyz": [
                    3.045602848932981,
                    1.7583758582887798,
                    13.660745026364326
                ],
                "label": "Ba",
                "properties": {}
            },
            {
                "species": [
                    {
                        "element": "Ba",
                        "occu": 1
                    }
                ],
                "abc": [
                    0.333333,
                    0.666667,
                    0.37767707
                ],
                "xyz": [
                    -2.888932979949743e-06,
                    3.5167572617112195,
                    5.8784151163643275
                ],
                "label": "Ba",
                "properties": {}
            },
            {
                "species": [
                    {
                        "element": "Sr",
                        "occu": 1
                    }
                ],
                "abc": [
                    0.0,
                    0.0,
                    0.0
                ],
                "xyz": [
                    0.0,
                    0.0,
                    0.0
                ],
                "label": "Sr",
                "properties": {}
            },
            {
                "species": [
                    {
                        "element": "Sr",
                        "occu": 1
                    }
                ],
                "abc": [
                    0.0,
                    0.0,
                    0.5
                ],
                "xyz": [
                    0.0,
                    0.0,
                    7.78232991
                ],
                "label": "Sr",
                "properties": {}
            },
            {
                "species": [
                    {
                        "element": "Nb",
                        "occu": 1
                    }
                ],
                "abc": [
                    0.333333,
                    0.666667,
                    0.84577072
                ],
                "xyz": [
                    -2.888932979949743e-06,
                    3.5167572617112195,
                    13.164133542516469
                ],
                "label": "Nb",
                "properties": {}
            },
            {
                "species": [
                    {
                        "element": "Nb",
                        "occu": 1
                    }
                ],
                "abc": [
                    0.666667,
                    0.333333,
                    0.34577072
                ],
                "xyz": [
                    3.045602848932981,
                    1.7583758582887798,
                    5.38180363251647
                ],
                "label": "Nb",
                "properties": {}
            },
            {
                "species": [
                    {
                        "element": "Nb",
                        "occu": 1
                    }
                ],
                "abc": [
                    0.666667,
                    0.333333,
                    0.15422928
                ],
                "xyz": [
                    3.045602848932981,
                    1.7583758582887798,
                    2.4005262774835296
                ],
                "label": "Nb",
                "properties": {}
            },
            {
                "species": [
                    {
                        "element": "Nb",
                        "occu": 1
                    }
                ],
                "abc": [
                    0.333333,
                    0.666667,
                    0.65422928
                ],
                "xyz": [
                    -2.888932979949743e-06,
                    3.5167572617112195,
                    10.18285618748353
                ],
                "label": "Nb",
                "properties": {}
            },
            {
                "species": [
                    {
                        "element": "O",
                        "occu": 1
                    }
                ],
                "abc": [
                    0.56997238,
                    0.04075111,
                    0.25
                ],
                "xyz": [
                    3.3477038877382572,
                    0.2149673871480203,
                    3.891164955
                ],
                "label": "O",
                "properties": {}
            },
            {
                "species": [
                    {
                        "element": "O",
                        "occu": 1
                    }
                ],
                "abc": [
                    0.52922128,
                    0.56997238,
                    0.75
                ],
                "xyz": [
                    1.4876847798222106,
                    3.006680190226022,
                    11.673494864999999
                ],
                "label": "O",
                "properties": {}
            },
            {
                "species": [
                    {
                        "element": "O",
                        "occu": 1
                    }
                ],
                "abc": [
                    0.04075111,
                    0.47077872,
                    0.75
                ],
                "xyz": [
                    -1.1855802907159632,
                    2.483420534170661,
                    11.673494864999999
                ],
                "label": "O",
                "properties": {}
            },
            {
                "species": [
                    {
                        "element": "O",
                        "occu": 1
                    }
                ],
                "abc": [
                    0.95924889,
                    0.52922128,
                    0.25
                ],
                "xyz": [
                    4.231180250715964,
                    2.791712585829339,
                    3.891164955
                ],
                "label": "O",
                "properties": {}
            },
            {
                "species": [
                    {
                        "element": "O",
                        "occu": 1
                    }
                ],
                "abc": [
                    0.47077872,
                    0.43002762,
                    0.25
                ],
                "xyz": [
                    1.5579151801777902,
                    2.2684529297739773,
                    3.891164955
                ],
                "label": "O",
                "properties": {}
            },
            {
                "species": [
                    {
                        "element": "O",
                        "occu": 1
                    }
                ],
                "abc": [
                    0.43002762,
                    0.95924889,
                    0.75
                ],
                "xyz": [
                    -0.3021039277382567,
                    5.06016573285198,
                    11.673494864999999
                ],
                "label": "O",
                "properties": {}
            },
            {
                "species": [
                    {
                        "element": "O",
                        "occu": 1
                    }
                ],
                "abc": [
                    0.75811639,
                    0.64990204,
                    0.09858034
                ],
                "xyz": [
                    2.6384968162300266,
                    3.42831974674169,
                    1.5343694570399387
                ],
                "label": "O",
                "properties": {}
            },
            {
                "species": [
                    {
                        "element": "O",
                        "occu": 1
                    }
                ],
                "abc": [
                    0.10821435,
                    0.75811639,
                    0.59858034
                ],
                "xyz": [
                    -1.6497637015425335,
                    3.9991650531773875,
                    9.31669936703994
                ],
                "label": "O",
                "properties": {}
            },
            {
                "species": [
                    {
                        "element": "O",
                        "occu": 1
                    }
                ],
                "abc": [
                    0.64990204,
                    0.89178565,
                    0.59858034
                ],
                "xyz": [
                    1.2426610277725598,
                    4.704288083564303,
                    9.31669936703994
                ],
                "label": "O",
                "properties": {}
            },
            {
                "species": [
                    {
                        "element": "O",
                        "occu": 1
                    }
                ],
                "abc": [
                    0.35009796,
                    0.10821435,
                    0.09858034
                ],
                "xyz": [
                    1.8029389322274405,
                    0.5708450364356973,
                    1.5343694570399387
                ],
                "label": "O",
                "properties": {}
            },
            {
                "species": [
                    {
                        "element": "O",
                        "occu": 1
                    }
                ],
                "abc": [
                    0.89178565,
                    0.24188361,
                    0.09858034
                ],
                "xyz": [
                    4.695363661542534,
                    1.2759680668226123,
                    1.5343694570399387
                ],
                "label": "O",
                "properties": {}
            },
            {
                "species": [
                    {
                        "element": "O",
                        "occu": 1
                    }
                ],
                "abc": [
                    0.24188361,
                    0.35009796,
                    0.59858034
                ],
                "xyz": [
                    0.40710314376997414,
                    1.8468133732583094,
                    9.31669936703994
                ],
                "label": "O",
                "properties": {}
            },
            {
                "species": [
                    {
                        "element": "O",
                        "occu": 1
                    }
                ],
                "abc": [
                    0.24188361,
                    0.35009796,
                    0.90141966
                ],
                "xyz": [
                    0.40710314376997414,
                    1.8468133732583094,
                    14.03029036296006
                ],
                "label": "O",
                "properties": {}
            },
            {
                "species": [
                    {
                        "element": "O",
                        "occu": 1
                    }
                ],
                "abc": [
                    0.89178565,
                    0.24188361,
                    0.40141966
                ],
                "xyz": [
                    4.695363661542534,
                    1.2759680668226123,
                    6.247960452960061
                ],
                "label": "O",
                "properties": {}
            },
            {
                "species": [
                    {
                        "element": "O",
                        "occu": 1
                    }
                ],
                "abc": [
                    0.35009796,
                    0.10821435,
                    0.40141966
                ],
                "xyz": [
                    1.8029389322274405,
                    0.5708450364356973,
                    6.247960452960061
                ],
                "label": "O",
                "properties": {}
            },
            {
                "species": [
                    {
                        "element": "O",
                        "occu": 1
                    }
                ],
                "abc": [
                    0.64990204,
                    0.89178565,
                    0.90141966
                ],
                "xyz": [
                    1.2426610277725598,
                    4.704288083564303,
                    14.03029036296006
                ],
                "label": "O",
                "properties": {}
            },
            {
                "species": [
                    {
                        "element": "O",
                        "occu": 1
                    }
                ],
                "abc": [
                    0.10821435,
                    0.75811639,
                    0.90141966
                ],
                "xyz": [
                    -1.6497637015425335,
                    3.9991650531773875,
                    14.03029036296006
                ],
                "label": "O",
                "properties": {}
            },
            {
                "species": [
                    {
                        "element": "O",
                        "occu": 1
                    }
                ],
                "abc": [
                    0.75811639,
                    0.64990204,
                    0.40141966
                ],
                "xyz": [
                    2.6384968162300266,
                    3.42831974674169,
                    6.247960452960061
                ],
                "label": "O",
                "properties": {}
            }
        ]
    },
    "spacegroup": {
        "source": "spglib",
        "symbol": "P6_3/m",
        "number": 176,
        "point_group": "6/m",
        "crystal_system": "hexagonal",
        "hall": "-P 6c"
    },
    "dielectric": {
        "epsilon_ionic": [
            [
                14.76115531,
                -0.00114996,
                -1e-08
            ],
            [
                -0.00114996,
                14.7615737,
                -1e-08
            ],
            [
                -1e-08,
                -1e-08,
                15.11118134
            ]
        ],
        "epsilon_ionic_avg": 14.877970116666665,
        "epsilon_ionic_eig": [
            14.7601956720138,
            14.762533337986195,
            15.11118134
        ],
        "epsilon_electronic": [
            [
                4.28677381,
                5.62e-06,
                0.0
            ],
            [
                -6.43e-06,
                4.28677369,
                0.0
            ],
            [
                0.0,
                -0.0,
                3.85636833
            ]
        ],
        "epsilon_electronic_avg": 4.143305276666668,
        "epsilon_electronic_eig": [
            4.286773750000002,
            4.286773750000002,
            3.85636833
        ]
    },
    "phonon": {
        "lowest_freq": -0.06387699590271907,
        "frequency": [
            -0.06387699590271907,
            -0.06387698978094983,
            -0.021241596570179,
            0.8833833824996097,
            0.8833834447489443,
            1.1927226208549184,
            1.2559137418932567,
            1.2559138547609363,
            1.277099466939571,
            1.277099578891752,
            1.9458803089906689,
            2.3254592006392123,
            2.4178923072388505,
            2.488891452816004,
            2.803590563574529,
            2.84412898654035,
            2.844129205665542,
            2.902848704156754,
            2.902848952526693,
            3.470365230440579,
            3.480901843148744,
            3.4809019941039545,
            3.6868816655817147,
            3.686881854505694,
            3.7956096855554993,
            3.795609962433422,
            3.9210395734496686,
            3.9210398383540395,
            4.087455202859404,
            4.0874555556365335,
            4.326390853544475,
            4.326391203785774,
            4.60315707340051,
            5.198973973342655,
            5.19897430240775,
            5.209854220339899,
            5.2271979724259054,
            5.245174232774813,
            5.4681714239446935,
            5.4681718485475415,
            5.6754055565623895,
            5.675405965661112,
            6.240961541259097,
            6.240961991606594,
            6.767193957384341,
            6.828993264009366,
            7.384190846344792,
            7.598584746422995,
            8.210749277742728,
            8.551388757082274,
            8.551388914273199,
            8.609590452341196,
            8.680220713145575,
            9.007008390927,
            9.007008743674717,
            9.013874667376239,
            9.013874816501978,
            9.266414726572346,
            9.26641508263257,
            9.842428844167376,
            10.156374778192673,
            10.15637553619974,
            10.171837097266684,
            10.171837866135066,
            10.522687619637669,
            10.583214162409186,
            12.376674131162812,
            12.37667414103623,
            12.38766063901086,
            12.387660648875523,
            12.693884040380418,
            12.693884107767238,
            12.701679514594947,
            12.701679581940407,
            14.750787674984984,
            15.735865519039153,
            15.765041089432561,
            17.361151055138468,
            18.861269369024193,
            18.861270146490824,
            18.98507589836101,
            18.985076670757582,
            19.0718546399249,
            19.071855408806996,
            19.185408534156856,
            19.18540942587666,
            21.67166832301135,
            23.029156425127635,
            23.080275269339364,
            23.312449816194047
        ]
    },
    "born_effective_charge": {
        "avg_abs_trace": 2.833312444444445,
        "tensors": [
            [
                [
                    3.04015,
                    -0.00974,
                    0.0
                ],
                [
                    0.00939,
                    3.04025,
                    0.0
                ],
                [
                    -0.0,
                    0.0,
                    1.77787
                ]
            ],
            [
                [
                    3.0402,
                    -0.00967,
                    0.0
                ],
                [
                    0.00945,
                    3.04014,
                    0.0
                ],
                [
                    -0.0,
                    0.0,
                    1.77787
                ]
            ],
            [
                [
                    3.04676,
                    0.12636,
                    7e-05
                ],
                [
                    -0.12661,
                    3.04652,
                    -0.00038
                ],
                [
                    -0.0,
                    0.0,
                    2.22767
                ]
            ],
            [
                [
                    3.04674,
                    0.12601,
                    -0.00022
                ],
                [
                    -0.12669,
                    3.04688,
                    -0.00013
                ],
                [
                    -0.0,
                    0.0,
                    2.22767
                ]
            ],
            [
                [
                    3.04674,
                    0.12601,
                    0.00022
                ],
                [
                    -0.12669,
                    3.04688,
                    0.00013
                ],
                [
                    -0.0,
                    0.0,
                    2.22737
                ]
            ],
            [
                [
                    3.04676,
                    0.12636,
                    -7e-05
                ],
                [
                    -0.12661,
                    3.04652,
                    0.00038
                ],
                [
                    -0.0,
                    0.0,
                    2.22737
                ]
            ],
            [
                [
                    2.88666,
                    -0.238,
                    -0.00011
                ],
                [
                    0.23774,
                    2.88656,
                    -2e-05
                ],
                [
                    -0.0,
                    0.0,
                    3.71243
                ]
            ],
            [
                [
                    2.88666,
                    -0.238,
                    0.00011
                ],
                [
                    0.23774,
                    2.88656,
                    2e-05
                ],
                [
                    -0.0,
                    0.0,
                    3.71243
                ]
            ],
            [
                [
                    5.11623,
                    -0.08589,
                    -0.0001
                ],
                [
                    0.08531,
                    5.11585,
                    9e-05
                ],
                [
                    -0.0,
                    0.0,
                    4.65041
                ]
            ],
            [
                [
                    5.11629,
                    -0.08548,
                    5e-05
                ],
                [
                    0.08513,
                    5.11562,
                    -0.00028
                ],
                [
                    -0.0,
                    0.0,
                    4.65041
                ]
            ],
            [
                [
                    5.11629,
                    -0.08548,
                    -5e-05
                ],
                [
                    0.08513,
                    5.11562,
                    0.00028
                ],
                [
                    -0.0,
                    0.0,
                    4.64929
                ]
            ],
            [
                [
                    5.11623,
                    -0.08589,
                    0.0001
                ],
                [
                    0.08531,
                    5.11585,
                    -9e-05
                ],
                [
                    -0.0,
                    0.0,
                    4.64929
                ]
            ],
            [
                [
                    -1.74334,
                    0.28272,
                    0.0
                ],
                [
                    0.26898,
                    -3.00169,
                    0.0
                ],
                [
                    -0.00012,
                    0.00041,
                    -2.38785
                ]
            ],
            [
                [
                    -2.92516,
                    0.41345,
                    0.0
                ],
                [
                    0.39988,
                    -1.81787,
                    0.0
                ],
                [
                    -0.00042,
                    0.0001,
                    -2.38785
                ]
            ],
            [
                [
                    -2.44754,
                    -0.67576,
                    0.0
                ],
                [
                    -0.68972,
                    -2.2966,
                    0.0
                ],
                [
                    0.00029,
                    0.00031,
                    -2.38785
                ]
            ],
            [
                [
                    -2.44803,
                    -0.67611,
                    0.0
                ],
                [
                    -0.68921,
                    -2.29668,
                    0.0
                ],
                [
                    -0.00029,
                    -0.00031,
                    -2.38785
                ]
            ],
            [
                [
                    -2.92593,
                    0.41348,
                    0.0
                ],
                [
                    0.40055,
                    -1.81786,
                    0.0
                ],
                [
                    0.00042,
                    -0.0001,
                    -2.38785
                ]
            ],
            [
                [
                    -1.74332,
                    0.28286,
                    0.0
                ],
                [
                    0.26925,
                    -3.0012,
                    0.0
                ],
                [
                    0.00012,
                    -0.00041,
                    -2.38785
                ]
            ],
            [
                [
                    -1.82357,
                    0.4638,
                    -0.14802
                ],
                [
                    0.41576,
                    -3.22179,
                    0.92734
                ],
                [
                    -0.13368,
                    1.05702,
                    -2.01359
                ]
            ],
            [
                [
                    -3.25295,
                    0.41026,
                    -0.87729
                ],
                [
                    0.36223,
                    -1.79234,
                    0.33567
                ],
                [
                    -0.98225,
                    0.41274,
                    -2.01359
                ]
            ],
            [
                [
                    -2.49177,
                    -0.80077,
                    0.72955
                ],
                [
                    -0.8494,
                    -2.55354,
                    0.59182
                ],
                [
                    0.84857,
                    0.64428,
                    -2.01359
                ]
            ],
            [
                [
                    -2.49172,
                    -0.80072,
                    -0.72969
                ],
                [
                    -0.84962,
                    -2.55355,
                    -0.59169
                ],
                [
                    -0.84857,
                    -0.64428,
                    -2.01359
                ]
            ],
            [
                [
                    -3.25283,
                    0.41006,
                    0.87729
                ],
                [
                    0.36187,
                    -1.79223,
                    -0.33593
                ],
                [
                    0.98225,
                    -0.41274,
                    -2.01359
                ]
            ],
            [
                [
                    -1.82335,
                    0.46374,
                    0.14831
                ],
                [
                    0.41499,
                    -3.22223,
                    -0.92773
                ],
                [
                    0.13368,
                    -1.05702,
                    -2.01359
                ]
            ],
            [
                [
                    -1.82335,
                    0.46374,
                    -0.14831
                ],
                [
                    0.41499,
                    -3.22223,
                    0.92773
                ],
                [
                    -0.13375,
                    1.05704,
                    -2.01358
                ]
            ],
            [
                [
                    -3.25283,
                    0.41006,
                    -0.87729
                ],
                [
                    0.36187,
                    -1.79223,
                    0.33593
                ],
                [
                    -0.9823,
                    0.41269,
                    -2.01358
                ]
            ],
            [
                [
                    -2.49172,
                    -0.80072,
                    0.72969
                ],
                [
                    -0.84962,
                    -2.55355,
                    0.59169
                ],
                [
                    0.84855,
                    0.64436,
                    -2.01358
                ]
            ],
            [
                [
                    -2.49177,
                    -0.80077,
                    -0.72955
                ],
                [
                    -0.8494,
                    -2.55354,
                    -0.59182
                ],
                [
                    -0.84855,
                    -0.64436,
                    -2.01358
                ]
            ],
            [
                [
                    -3.25295,
                    0.41026,
                    0.87729
                ],
                [
                    0.36223,
                    -1.79234,
                    -0.33567
                ],
                [
                    0.9823,
                    -0.41269,
                    -2.01358
                ]
            ],
            [
                [
                    -1.82357,
                    0.4638,
                    0.14802
                ],
                [
                    0.41576,
                    -3.22179,
                    -0.92734
                ],
                [
                    0.13375,
                    -1.05704,
                    -2.01358
                ]
            ]
        ]
    },
    "band_gap": 3.6933000000000007,
    "is_direct": false,
    "formula": "Ba3SrNb2O9"
}