{
    "mp_id": "mp-561442",
    "nelements": 3,
    "nsites": 22,
    "elements": [
        "Hf",
        "O",
        "Y"
    ],
    "structure": {
        "@module": "pymatgen.core.structure",
        "@class": "Structure",
        "charge": null,
        "lattice": {
            "matrix": [
                [
                    0.0,
                    5.23219609,
                    5.23219609
                ],
                [
                    5.23219609,
                    0.0,
                    5.23219609
                ],
                [
                    5.23219609,
                    5.23219609,
                    0.0
                ]
            ],
            "a": 7.39944267147348,
            "b": 7.39944267147348,
            "c": 7.39944267147348,
            "alpha": 60.00000000000001,
            "beta": 60.00000000000001,
            "gamma": 60.00000000000001,
            "volume": 286.47190194196696
        },
        "sites": [
            {
                "species": [
                    {
                        "element": "Y",
                        "occu": 1
                    }
                ],
                "abc": [
                    0.625,
                    0.625,
                    0.625
                ],
                "xyz": [
                    6.540245112500001,
                    6.540245112500001,
                    6.540245112500001
                ],
                "label": "Y",
                "properties": {}
            },
            {
                "species": [
                    {
                        "element": "Y",
                        "occu": 1
                    }
                ],
                "abc": [
                    0.625,
                    0.125,
                    0.625
                ],
                "xyz": [
                    3.9241470675000008,
                    6.540245112500001,
                    3.9241470675000008
                ],
                "label": "Y",
                "properties": {}
            },
            {
                "species": [
                    {
                        "element": "Y",
                        "occu": 1
                    }
                ],
                "abc": [
                    0.625,
                    0.625,
                    0.125
                ],
                "xyz": [
                    3.9241470675000008,
                    3.9241470675000008,
                    6.540245112500001
                ],
                "label": "Y",
                "properties": {}
            },
            {
                "species": [
                    {
                        "element": "Y",
                        "occu": 1
                    }
                ],
                "abc": [
                    0.125,
                    0.625,
                    0.625
                ],
                "xyz": [
                    6.540245112500001,
                    3.9241470675000008,
                    3.9241470675000008
                ],
                "label": "Y",
                "properties": {}
            },
            {
                "species": [
                    {
                        "element": "Hf",
                        "occu": 1
                    }
                ],
                "abc": [
                    0.125,
                    0.625,
                    0.125
                ],
                "xyz": [
                    3.9241470675000008,
                    1.3080490225,
                    3.9241470675000008
                ],
                "label": "Hf",
                "properties": {}
            },
            {
                "species": [
                    {
                        "element": "Hf",
                        "occu": 1
                    }
                ],
                "abc": [
                    0.125,
                    0.125,
                    0.625
                ],
                "xyz": [
                    3.9241470675000008,
                    3.9241470675000008,
                    1.3080490225
                ],
                "label": "Hf",
                "properties": {}
            },
            {
                "species": [
                    {
                        "element": "Hf",
                        "occu": 1
                    }
                ],
                "abc": [
                    0.125,
                    0.125,
                    0.125
                ],
                "xyz": [
                    1.3080490225,
                    1.3080490225,
                    1.3080490225
                ],
                "label": "Hf",
                "properties": {}
            },
            {
                "species": [
                    {
                        "element": "Hf",
                        "occu": 1
                    }
                ],
                "abc": [
                    0.625,
                    0.125,
                    0.125
                ],
                "xyz": [
                    1.3080490225,
                    3.9241470675000008,
                    3.9241470675000008
                ],
                "label": "Hf",
                "properties": {}
            },
            {
                "species": [
                    {
                        "element": "O",
                        "occu": 1
                    }
                ],
                "abc": [
                    0.46579072,
                    0.03420928,
                    0.03420928
                ],
                "xyz": [
                    0.35797932211543043,
                    2.616098045,
                    2.616098045
                ],
                "label": "O",
                "properties": {}
            },
            {
                "species": [
                    {
                        "element": "O",
                        "occu": 1
                    }
                ],
                "abc": [
                    0.78420928,
                    0.78420928,
                    0.21579072
                ],
                "xyz": [
                    5.23219609,
                    5.23219609,
                    8.206273457115431
                ],
                "label": "O",
                "properties": {}
            },
            {
                "species": [
                    {
                        "element": "O",
                        "occu": 1
                    }
                ],
                "abc": [
                    0.78420928,
                    0.21579072,
                    0.78420928
                ],
                "xyz": [
                    5.23219609,
                    8.206273457115431,
                    5.23219609
                ],
                "label": "O",
                "properties": {}
            },
            {
                "species": [
                    {
                        "element": "O",
                        "occu": 1
                    }
                ],
                "abc": [
                    0.46579072,
                    0.03420928,
                    0.46579072
                ],
                "xyz": [
                    2.616098045,
                    4.87421676788457,
                    2.616098045
                ],
                "label": "O",
                "properties": {}
            },
            {
                "species": [
                    {
                        "element": "O",
                        "occu": 1
                    }
                ],
                "abc": [
                    0.21579072,
                    0.78420928,
                    0.78420928
                ],
                "xyz": [
                    8.206273457115431,
                    5.23219609,
                    5.23219609
                ],
                "label": "O",
                "properties": {}
            },
            {
                "species": [
                    {
                        "element": "O",
                        "occu": 1
                    }
                ],
                "abc": [
                    0.21579072,
                    0.21579072,
                    0.78420928
                ],
                "xyz": [
                    5.23219609,
                    5.23219609,
                    2.2581187228845696
                ],
                "label": "O",
                "properties": {}
            },
            {
                "species": [
                    {
                        "element": "O",
                        "occu": 1
                    }
                ],
                "abc": [
                    0.03420928,
                    0.46579072,
                    0.03420928
                ],
                "xyz": [
                    2.616098045,
                    0.35797932211543043,
                    2.616098045
                ],
                "label": "O",
                "properties": {}
            },
            {
                "species": [
                    {
                        "element": "O",
                        "occu": 1
                    }
                ],
                "abc": [
                    0.21579072,
                    0.78420928,
                    0.21579072
                ],
                "xyz": [
                    5.23219609,
                    2.2581187228845696,
                    5.23219609
                ],
                "label": "O",
                "properties": {}
            },
            {
                "species": [
                    {
                        "element": "O",
                        "occu": 1
                    }
                ],
                "abc": [
                    0.03420928,
                    0.03420928,
                    0.46579072
                ],
                "xyz": [
                    2.616098045,
                    2.616098045,
                    0.35797932211543043
                ],
                "label": "O",
                "properties": {}
            },
            {
                "species": [
                    {
                        "element": "O",
                        "occu": 1
                    }
                ],
                "abc": [
                    0.5,
                    0.5,
                    0.5
                ],
                "xyz": [
                    5.23219609,
                    5.23219609,
                    5.23219609
                ],
                "label": "O",
                "properties": {}
            },
            {
                "species": [
                    {
                        "element": "O",
                        "occu": 1
                    }
                ],
                "abc": [
                    0.03420928,
                    0.46579072,
                    0.46579072
                ],
                "xyz": [
                    4.87421676788457,
                    2.616098045,
                    2.616098045
                ],
                "label": "O",
                "properties": {}
            },
            {
                "species": [
                    {
                        "element": "O",
                        "occu": 1
                    }
                ],
                "abc": [
                    0.78420928,
                    0.21579072,
                    0.21579072
                ],
                "xyz": [
                    2.2581187228845696,
                    5.23219609,
                    5.23219609
                ],
                "label": "O",
                "properties": {}
            },
            {
                "species": [
                    {
                        "element": "O",
                        "occu": 1
                    }
                ],
                "abc": [
                    0.46579072,
                    0.46579072,
                    0.03420928
                ],
                "xyz": [
                    2.616098045,
                    2.616098045,
                    4.87421676788457
                ],
                "label": "O",
                "properties": {}
            },
            {
                "species": [
                    {
                        "element": "O",
                        "occu": 1
                    }
                ],
                "abc": [
                    0.75,
                    0.75,
                    0.75
                ],
                "xyz": [
                    7.848294135000001,
                    7.848294135000001,
                    7.848294135000001
                ],
                "label": "O",
                "properties": {}
            }
        ]
    },
    "spacegroup": {
        "source": "spglib",
        "symbol": "Fd-3m",
        "number": 227,
        "point_group": "m-3m",
        "crystal_system": "cubic",
        "hall": "F 4d 2 3 -1d"
    },
    "dielectric": {
        "epsilon_ionic": [
            [
                23.67689873,
                -0.0,
                0.0
            ],
            [
                -0.0,
                23.67619159,
                0.0
            ],
            [
                0.0,
                0.0,
                23.67408078
            ]
        ],
        "epsilon_ionic_avg": 23.675723700000002,
        "epsilon_ionic_eig": [
            23.67689873,
            23.67619159,
            23.67408078
        ],
        "epsilon_electronic": [
            [
                4.34148547,
                0.0,
                -0.0
            ],
            [
                -0.0,
                4.34148547,
                -0.0
            ],
            [
                -0.0,
                -0.0,
                4.34148547
            ]
        ],
        "epsilon_electronic_avg": 4.34148547,
        "epsilon_electronic_eig": [
            4.34148547,
            4.34148547,
            4.34148547
        ]
    },
    "phonon": {
        "lowest_freq": -0.018639053886660633,
        "frequency": [
            -0.018639053886660633,
            -0.018639053886660633,
            -0.018639053886660633,
            1.6270092559655842,
            1.6270092559655842,
            1.6270092559655842,
            2.65094302134773,
            2.65094302134773,
            2.65094302134773,
            3.0473335298394435,
            3.0473335298394435,
            3.482754458800343,
            3.482754458800343,
            3.509129299712083,
            3.509129299712083,
            3.509129299712083,
            4.334674860269808,
            4.334674860269808,
            4.334674860269808,
            5.171538551040441,
            5.171538551040441,
            5.171538551040441,
            6.775467207175331,
            6.877969653006486,
            6.877969653006486,
            6.877969653006486,
            7.093473199494776,
            7.093473199494776,
            7.093473199494776,
            8.24795433275639,
            9.29640200898002,
            9.29640200898002,
            9.29640200898002,
            9.419431992597413,
            9.419431992597413,
            9.419431992597413,
            9.519507975875644,
            9.519507975875644,
            9.519507975875644,
            10.220273795024704,
            10.220273795024704,
            11.338038970210347,
            11.338038970210347,
            11.849233968131973,
            11.849233968131973,
            11.849233968131973,
            12.01049847092957,
            12.070181439391947,
            12.070181439391947,
            12.070181439391947,
            14.751668817353101,
            15.345728683612123,
            15.345728683612123,
            15.345728683612123,
            17.373977036674827,
            17.373977036674827,
            17.373977036674827,
            18.674883448866908,
            18.674883448866908,
            18.674883448866908,
            19.667497622794592,
            19.667497622794592,
            19.667497622794592,
            23.489328369625298,
            23.489328369625298,
            23.489328369625298
        ]
    },
    "born_effective_charge": {
        "avg_abs_trace": 3.2713575757575764,
        "tensors": [
            [
                [
                    3.91683,
                    0.02069,
                    0.02069
                ],
                [
                    0.02071,
                    3.91674,
                    0.02071
                ],
                [
                    0.02051,
                    0.02051,
                    3.91669
                ]
            ],
            [
                [
                    3.91683,
                    -0.02069,
                    0.02069
                ],
                [
                    -0.02071,
                    3.91674,
                    -0.02071
                ],
                [
                    0.02051,
                    -0.02051,
                    3.91669
                ]
            ],
            [
                [
                    3.91683,
                    0.02069,
                    -0.02069
                ],
                [
                    0.02071,
                    3.91674,
                    -0.02071
                ],
                [
                    -0.02051,
                    -0.02051,
                    3.91669
                ]
            ],
            [
                [
                    3.91683,
                    -0.02069,
                    -0.02069
                ],
                [
                    -0.02071,
                    3.91674,
                    0.02071
                ],
                [
                    -0.02051,
                    0.02051,
                    3.91669
                ]
            ],
            [
                [
                    5.07964,
                    0.44182,
                    -0.44182
                ],
                [
                    0.44185,
                    5.07962,
                    0.44185
                ],
                [
                    -0.44153,
                    0.44153,
                    5.07917
                ]
            ],
            [
                [
                    5.07964,
                    -0.44182,
                    0.44182
                ],
                [
                    -0.44185,
                    5.07962,
                    0.44185
                ],
                [
                    0.44153,
                    0.44153,
                    5.07917
                ]
            ],
            [
                [
                    5.07964,
                    -0.44182,
                    -0.44182
                ],
                [
                    -0.44185,
                    5.07962,
                    -0.44185
                ],
                [
                    -0.44153,
                    -0.44153,
                    5.07917
                ]
            ],
            [
                [
                    5.07964,
                    0.44182,
                    0.44182
                ],
                [
                    0.44185,
                    5.07962,
                    -0.44185
                ],
                [
                    0.44153,
                    -0.44153,
                    5.07917
                ]
            ],
            [
                [
                    -2.40091,
                    -0.0,
                    -0.0
                ],
                [
                    -0.0,
                    -2.64233,
                    -0.73686
                ],
                [
                    -2e-05,
                    -0.73699,
                    -2.64226
                ]
            ],
            [
                [
                    -2.64236,
                    0.73689,
                    4e-05
                ],
                [
                    0.73686,
                    -2.64233,
                    -0.0
                ],
                [
                    0.0,
                    -0.0,
                    -2.40042
                ]
            ],
            [
                [
                    -2.64236,
                    4e-05,
                    0.73689
                ],
                [
                    -0.0,
                    -2.40084,
                    -0.0
                ],
                [
                    0.73699,
                    -2e-05,
                    -2.64226
                ]
            ],
            [
                [
                    -2.64236,
                    -4e-05,
                    0.73689
                ],
                [
                    -0.0,
                    -2.40076,
                    -0.0
                ],
                [
                    0.73699,
                    2e-05,
                    -2.64226
                ]
            ],
            [
                [
                    -2.40091,
                    0.0,
                    0.0
                ],
                [
                    -0.0,
                    -2.64233,
                    0.73686
                ],
                [
                    -2e-05,
                    0.73699,
                    -2.64226
                ]
            ],
            [
                [
                    -2.64236,
                    -0.73689,
                    -4e-05
                ],
                [
                    -0.73686,
                    -2.64233,
                    0.0
                ],
                [
                    -0.0,
                    -0.0,
                    -2.4004
                ]
            ],
            [
                [
                    -2.64236,
                    4e-05,
                    -0.73689
                ],
                [
                    -0.0,
                    -2.40084,
                    0.0
                ],
                [
                    -0.73699,
                    -2e-05,
                    -2.64226
                ]
            ],
            [
                [
                    -2.64236,
                    -4e-05,
                    -0.73689
                ],
                [
                    -0.0,
                    -2.40076,
                    0.0
                ],
                [
                    -0.73699,
                    2e-05,
                    -2.64226
                ]
            ],
            [
                [
                    -2.64236,
                    -0.73689,
                    4e-05
                ],
                [
                    -0.73686,
                    -2.64233,
                    -0.0
                ],
                [
                    -0.0,
                    -0.0,
                    -2.40042
                ]
            ],
            [
                [
                    -2.62186,
                    -0.0,
                    -0.0
                ],
                [
                    -0.0,
                    -2.62182,
                    -0.0
                ],
                [
                    -0.0,
                    -0.0,
                    -2.62187
                ]
            ],
            [
                [
                    -2.40074,
                    -0.0,
                    -0.0
                ],
                [
                    0.0,
                    -2.64233,
                    0.73686
                ],
                [
                    2e-05,
                    0.73699,
                    -2.64226
                ]
            ],
            [
                [
                    -2.40074,
                    0.0,
                    0.0
                ],
                [
                    0.0,
                    -2.64233,
                    -0.73686
                ],
                [
                    2e-05,
                    -0.73699,
                    -2.64226
                ]
            ],
            [
                [
                    -2.64236,
                    0.73689,
                    -4e-05
                ],
                [
                    0.73686,
                    -2.64233,
                    0.0
                ],
                [
                    0.0,
                    0.0,
                    -2.4004
                ]
            ],
            [
                [
                    -2.62186,
                    -0.0,
                    0.0
                ],
                [
                    -0.0,
                    -2.62182,
                    -0.0
                ],
                [
                    -0.0,
                    -0.0,
                    -2.62187
                ]
            ]
        ]
    },
    "band_gap": 3.1592000000000002,
    "is_direct": false,
    "formula": "Y2Hf2O7"
}