{
    "mp_id": "mp-6081",
    "nelements": 4,
    "nsites": 26,
    "elements": [
        "Ba",
        "O",
        "Si",
        "Ti"
    ],
    "structure": {
        "@module": "pymatgen.core.structure",
        "@class": "Structure",
        "charge": null,
        "lattice": {
            "matrix": [
                [
                    8.59385902,
                    0.0,
                    0.0
                ],
                [
                    0.0,
                    8.59385902,
                    0.0
                ],
                [
                    0.0,
                    0.0,
                    5.20148221
                ]
            ],
            "a": 8.59385902,
            "b": 8.59385902,
            "c": 5.20148221,
            "alpha": 90.0,
            "beta": 90.0,
            "gamma": 90.0,
            "volume": 384.1524145985826
        },
        "sites": [
            {
                "species": [
                    {
                        "element": "Ba",
                        "occu": 1
                    }
                ],
                "abc": [
                    0.67283638,
                    0.17283638,
                    0.9917074
                ],
                "xyz": [
                    5.782260993247148,
                    1.4853314832471478,
                    5.158348398625354
                ],
                "label": "Ba",
                "properties": {}
            },
            {
                "species": [
                    {
                        "element": "Ba",
                        "occu": 1
                    }
                ],
                "abc": [
                    0.82716362,
                    0.67283638,
                    0.9917074
                ],
                "xyz": [
                    7.108527536752852,
                    5.782260993247148,
                    5.158348398625354
                ],
                "label": "Ba",
                "properties": {}
            },
            {
                "species": [
                    {
                        "element": "Ba",
                        "occu": 1
                    }
                ],
                "abc": [
                    0.17283638,
                    0.32716362,
                    0.9917074
                ],
                "xyz": [
                    1.4853314832471478,
                    2.8115980267528524,
                    5.158348398625354
                ],
                "label": "Ba",
                "properties": {}
            },
            {
                "species": [
                    {
                        "element": "Ba",
                        "occu": 1
                    }
                ],
                "abc": [
                    0.32716362,
                    0.82716362,
                    0.9917074
                ],
                "xyz": [
                    2.8115980267528524,
                    7.108527536752852,
                    5.158348398625354
                ],
                "label": "Ba",
                "properties": {}
            },
            {
                "species": [
                    {
                        "element": "Ti",
                        "occu": 1
                    }
                ],
                "abc": [
                    0.5,
                    0.5,
                    0.5372569
                ],
                "xyz": [
                    4.29692951,
                    4.29692951,
                    2.794532207549749
                ],
                "label": "Ti",
                "properties": {}
            },
            {
                "species": [
                    {
                        "element": "Ti",
                        "occu": 1
                    }
                ],
                "abc": [
                    0.0,
                    0.0,
                    0.5372569
                ],
                "xyz": [
                    0.0,
                    0.0,
                    2.794532207549749
                ],
                "label": "Ti",
                "properties": {}
            },
            {
                "species": [
                    {
                        "element": "Si",
                        "occu": 1
                    }
                ],
                "abc": [
                    0.87220274,
                    0.37220274,
                    0.5097744
                ],
                "xyz": [
                    7.495587384417715,
                    3.1986578744177145,
                    2.651582472713424
                ],
                "label": "Si",
                "properties": {}
            },
            {
                "species": [
                    {
                        "element": "Si",
                        "occu": 1
                    }
                ],
                "abc": [
                    0.62779726,
                    0.87220274,
                    0.5097744
                ],
                "xyz": [
                    5.395201145582285,
                    7.495587384417715,
                    2.651582472713424
                ],
                "label": "Si",
                "properties": {}
            },
            {
                "species": [
                    {
                        "element": "Si",
                        "occu": 1
                    }
                ],
                "abc": [
                    0.37220274,
                    0.12779726,
                    0.5097744
                ],
                "xyz": [
                    3.1986578744177145,
                    1.0982716355822852,
                    2.651582472713424
                ],
                "label": "Si",
                "properties": {}
            },
            {
                "species": [
                    {
                        "element": "Si",
                        "occu": 1
                    }
                ],
                "abc": [
                    0.12779726,
                    0.62779726,
                    0.5097744
                ],
                "xyz": [
                    1.0982716355822852,
                    5.395201145582285,
                    2.651582472713424
                ],
                "label": "Si",
                "properties": {}
            },
            {
                "species": [
                    {
                        "element": "O",
                        "occu": 1
                    }
                ],
                "abc": [
                    0.5,
                    0.5,
                    0.20129995
                ],
                "xyz": [
                    4.29692951,
                    4.29692951,
                    1.0470581087988895
                ],
                "label": "O",
                "properties": {}
            },
            {
                "species": [
                    {
                        "element": "O",
                        "occu": 1
                    }
                ],
                "abc": [
                    0.0,
                    0.0,
                    0.20129995
                ],
                "xyz": [
                    0.0,
                    0.0,
                    1.0470581087988895
                ],
                "label": "O",
                "properties": {}
            },
            {
                "species": [
                    {
                        "element": "O",
                        "occu": 1
                    }
                ],
                "abc": [
                    0.07691417,
                    0.79162732,
                    0.64561143
                ],
                "xyz": [
                    0.6609895336203134,
                    6.803133584460427,
                    3.3581363677176603
                ],
                "label": "O",
                "properties": {}
            },
            {
                "species": [
                    {
                        "element": "O",
                        "occu": 1
                    }
                ],
                "abc": [
                    0.92308583,
                    0.20837268,
                    0.64561143
                ],
                "xyz": [
                    7.932869486379687,
                    1.7907254355395736,
                    3.3581363677176603
                ],
                "label": "O",
                "properties": {}
            },
            {
                "species": [
                    {
                        "element": "O",
                        "occu": 1
                    }
                ],
                "abc": [
                    0.79162732,
                    0.92308583,
                    0.64561143
                ],
                "xyz": [
                    6.803133584460427,
                    7.932869486379687,
                    3.3581363677176603
                ],
                "label": "O",
                "properties": {}
            },
            {
                "species": [
                    {
                        "element": "O",
                        "occu": 1
                    }
                ],
                "abc": [
                    0.20837268,
                    0.07691417,
                    0.64561143
                ],
                "xyz": [
                    1.7907254355395736,
                    0.6609895336203134,
                    3.3581363677176603
                ],
                "label": "O",
                "properties": {}
            },
            {
                "species": [
                    {
                        "element": "O",
                        "occu": 1
                    }
                ],
                "abc": [
                    0.70837268,
                    0.42308583,
                    0.64561143
                ],
                "xyz": [
                    6.087654945539573,
                    3.6359399763796865,
                    3.3581363677176603
                ],
                "label": "O",
                "properties": {}
            },
            {
                "species": [
                    {
                        "element": "O",
                        "occu": 1
                    }
                ],
                "abc": [
                    0.57691417,
                    0.70837268,
                    0.64561143
                ],
                "xyz": [
                    4.957919043620313,
                    6.087654945539573,
                    3.3581363677176603
                ],
                "label": "O",
                "properties": {}
            },
            {
                "species": [
                    {
                        "element": "O",
                        "occu": 1
                    }
                ],
                "abc": [
                    0.42308583,
                    0.29162732,
                    0.64561143
                ],
                "xyz": [
                    3.6359399763796865,
                    2.5062040744604266,
                    3.3581363677176603
                ],
                "label": "O",
                "properties": {}
            },
            {
                "species": [
                    {
                        "element": "O",
                        "occu": 1
                    }
                ],
                "abc": [
                    0.29162732,
                    0.57691417,
                    0.64561143
                ],
                "xyz": [
                    2.5062040744604266,
                    4.957919043620313,
                    3.3581363677176603
                ],
                "label": "O",
                "properties": {}
            },
            {
                "species": [
                    {
                        "element": "O",
                        "occu": 1
                    }
                ],
                "abc": [
                    0.0,
                    0.5,
                    0.62827649
                ],
                "xyz": [
                    0.0,
                    4.29692951,
                    3.2679689856962426
                ],
                "label": "O",
                "properties": {}
            },
            {
                "species": [
                    {
                        "element": "O",
                        "occu": 1
                    }
                ],
                "abc": [
                    0.5,
                    0.0,
                    0.62827649
                ],
                "xyz": [
                    4.29692951,
                    0.0,
                    3.2679689856962426
                ],
                "label": "O",
                "properties": {}
            },
            {
                "species": [
                    {
                        "element": "O",
                        "occu": 1
                    }
                ],
                "abc": [
                    0.1262016,
                    0.6262016,
                    0.20187817
                ],
                "xyz": [
                    1.084558758498432,
                    5.381488268498432,
                    1.0500657098423556
                ],
                "label": "O",
                "properties": {}
            },
            {
                "species": [
                    {
                        "element": "O",
                        "occu": 1
                    }
                ],
                "abc": [
                    0.3737984,
                    0.1262016,
                    0.20187817
                ],
                "xyz": [
                    3.2123707515015676,
                    1.084558758498432,
                    1.0500657098423556
                ],
                "label": "O",
                "properties": {}
            },
            {
                "species": [
                    {
                        "element": "O",
                        "occu": 1
                    }
                ],
                "abc": [
                    0.6262016,
                    0.8737984,
                    0.20187817
                ],
                "xyz": [
                    5.381488268498432,
                    7.509300261501568,
                    1.0500657098423556
                ],
                "label": "O",
                "properties": {}
            },
            {
                "species": [
                    {
                        "element": "O",
                        "occu": 1
                    }
                ],
                "abc": [
                    0.8737984,
                    0.3737984,
                    0.20187817
                ],
                "xyz": [
                    7.509300261501568,
                    3.2123707515015676,
                    1.0500657098423556
                ],
                "label": "O",
                "properties": {}
            }
        ]
    },
    "spacegroup": {
        "source": "spglib",
        "symbol": "P4bm",
        "number": 100,
        "point_group": "4mm",
        "crystal_system": "tetragonal",
        "hall": "P 4 -2ab"
    },
    "dielectric": {
        "epsilon_ionic": [
            [
                18.12787991,
                0.0,
                6.23e-06
            ],
            [
                0.0,
                18.12800494,
                6.02e-06
            ],
            [
                6.23e-06,
                6.02e-06,
                5.08645111
            ]
        ],
        "epsilon_ionic_avg": 13.780778653333329,
        "epsilon_ionic_eig": [
            5.086451109994243,
            18.127879910002964,
            18.12800494000278
        ],
        "epsilon_electronic": [
            [
                3.44304218,
                -0.0,
                0.0
            ],
            [
                0.0,
                3.44304218,
                0.0
            ],
            [
                0.0,
                0.0,
                3.32336589
            ]
        ],
        "epsilon_electronic_avg": 3.4031500833333332,
        "epsilon_electronic_eig": [
            3.44304218,
            3.44304218,
            3.32336589
        ]
    },
    "phonon": {
        "lowest_freq": -0.07751304563823737,
        "frequency": [
            -0.07751304563823737,
            -0.07751304563823737,
            -0.026202112790847863,
            1.249676385229558,
            1.3184498084216354,
            1.3184498084216354,
            2.219218390857797,
            2.2970365255928296,
            2.2970365255928296,
            2.729349220381301,
            2.894517399217356,
            3.0465395778361417,
            3.134092955052694,
            3.134092955052694,
            3.4304411701033,
            3.4304411701033,
            3.9330918115269755,
            4.164461943806149,
            4.2634285621886505,
            4.4250575017051546,
            4.601633983938554,
            4.601633983938554,
            4.8587554948082365,
            5.07921846283548,
            5.07921846283548,
            5.493882627978638,
            5.493882627978638,
            6.1917413276082245,
            6.1917413276082245,
            6.381978320229036,
            6.689940605672233,
            7.301892255416305,
            7.538799942161034,
            7.538799942161034,
            7.712028017257301,
            7.8811503777215,
            9.016432312548293,
            9.016432312548293,
            9.705296564650913,
            9.705296564650913,
            9.708213502343046,
            10.667969465815188,
            10.824707266113515,
            10.824707266113515,
            11.392267123853632,
            11.392267123853632,
            11.45907722622555,
            12.80571904499383,
            12.865644088942878,
            13.423867283330727,
            13.464557181356142,
            13.464557181356142,
            13.662537069270641,
            14.382047823681912,
            16.155797613700468,
            16.155797613700468,
            16.468438658950078,
            16.76628310277948,
            17.02720032277608,
            17.02720032277608,
            19.315358446710047,
            19.58515079585767,
            25.438048571443392,
            25.485934676099568,
            25.680241759309386,
            25.680241759309386,
            26.07862650886166,
            26.706586098584157,
            26.706586098584157,
            27.37686156948091,
            28.054670919802525,
            28.59324273048165,
            28.59324273048165,
            29.567397235994534,
            30.127383311710474,
            30.127383311710474,
            30.294370416503455,
            30.530572386216146
        ]
    },
    "born_effective_charge": {
        "avg_abs_trace": 2.4379333333333335,
        "tensors": [
            [
                [
                    2.76318,
                    0.16085,
                    -0.03311
                ],
                [
                    0.16087,
                    2.76318,
                    -0.03311
                ],
                [
                    -0.01359,
                    -0.01359,
                    2.71031
                ]
            ],
            [
                [
                    2.76318,
                    -0.16085,
                    0.03313
                ],
                [
                    -0.16087,
                    2.76318,
                    -0.03311
                ],
                [
                    0.01359,
                    -0.01359,
                    2.71031
                ]
            ],
            [
                [
                    2.76318,
                    -0.16085,
                    -0.03311
                ],
                [
                    -0.16087,
                    2.76318,
                    0.03312
                ],
                [
                    -0.01359,
                    0.01359,
                    2.71031
                ]
            ],
            [
                [
                    2.76318,
                    0.16085,
                    0.03313
                ],
                [
                    0.16087,
                    2.76318,
                    0.03312
                ],
                [
                    0.01359,
                    0.01359,
                    2.71031
                ]
            ],
            [
                [
                    4.39504,
                    0.10604,
                    0.0
                ],
                [
                    -0.10602,
                    4.39509,
                    -0.0
                ],
                [
                    -0.0,
                    0.0,
                    3.20117
                ]
            ],
            [
                [
                    4.39504,
                    -0.10604,
                    0.0
                ],
                [
                    0.10602,
                    4.39509,
                    -0.0
                ],
                [
                    -0.0,
                    0.0,
                    3.20117
                ]
            ],
            [
                [
                    3.35084,
                    -0.20064,
                    -0.1325
                ],
                [
                    -0.20065,
                    3.35089,
                    -0.1325
                ],
                [
                    -0.01135,
                    -0.01135,
                    2.8358
                ]
            ],
            [
                [
                    3.35084,
                    0.20064,
                    0.13249
                ],
                [
                    0.20065,
                    3.35089,
                    -0.1325
                ],
                [
                    0.01135,
                    -0.01135,
                    2.8358
                ]
            ],
            [
                [
                    3.35084,
                    0.20064,
                    -0.1325
                ],
                [
                    0.20065,
                    3.35089,
                    0.1325
                ],
                [
                    -0.01135,
                    0.01135,
                    2.8358
                ]
            ],
            [
                [
                    3.35084,
                    -0.20064,
                    0.13249
                ],
                [
                    -0.20065,
                    3.35089,
                    0.1325
                ],
                [
                    0.01135,
                    0.01135,
                    2.8358
                ]
            ],
            [
                [
                    -1.06057,
                    -0.00734,
                    -3e-05
                ],
                [
                    0.00734,
                    -1.0606,
                    0.0
                ],
                [
                    -0.0,
                    0.0,
                    -2.67528
                ]
            ],
            [
                [
                    -1.06057,
                    0.00734,
                    -3e-05
                ],
                [
                    -0.00734,
                    -1.0606,
                    0.0
                ],
                [
                    -0.0,
                    0.0,
                    -2.67528
                ]
            ],
            [
                [
                    -1.76853,
                    0.68514,
                    -0.10261
                ],
                [
                    0.6204,
                    -3.15682,
                    0.0008
                ],
                [
                    -0.08787,
                    0.09736,
                    -1.45924
                ]
            ],
            [
                [
                    -1.76855,
                    0.68516,
                    0.10264
                ],
                [
                    0.6204,
                    -3.15682,
                    -0.00079
                ],
                [
                    0.08787,
                    -0.09736,
                    -1.45924
                ]
            ],
            [
                [
                    -3.15679,
                    -0.6204,
                    0.00079
                ],
                [
                    -0.68515,
                    -1.76856,
                    0.10263
                ],
                [
                    0.09736,
                    0.08787,
                    -1.45924
                ]
            ],
            [
                [
                    -3.15677,
                    -0.62039,
                    -0.00078
                ],
                [
                    -0.68515,
                    -1.76855,
                    -0.10261
                ],
                [
                    -0.09736,
                    -0.08787,
                    -1.45924
                ]
            ],
            [
                [
                    -3.15677,
                    0.62039,
                    -0.00078
                ],
                [
                    0.68515,
                    -1.76856,
                    0.10263
                ],
                [
                    -0.09736,
                    0.08787,
                    -1.45924
                ]
            ],
            [
                [
                    -1.76853,
                    -0.68514,
                    -0.10261
                ],
                [
                    -0.6204,
                    -3.15682,
                    -0.00079
                ],
                [
                    -0.08787,
                    -0.09736,
                    -1.45924
                ]
            ],
            [
                [
                    -1.76855,
                    -0.68516,
                    0.10264
                ],
                [
                    -0.6204,
                    -3.15682,
                    0.0008
                ],
                [
                    0.08787,
                    0.09736,
                    -1.45924
                ]
            ],
            [
                [
                    -3.15679,
                    0.6204,
                    0.00079
                ],
                [
                    0.68515,
                    -1.76855,
                    -0.10261
                ],
                [
                    0.09736,
                    -0.08787,
                    -1.45924
                ]
            ],
            [
                [
                    -2.30783,
                    -0.77312,
                    0.0
                ],
                [
                    -0.77312,
                    -2.30781,
                    -0.0
                ],
                [
                    -0.0,
                    0.0,
                    -1.59424
                ]
            ],
            [
                [
                    -2.30783,
                    0.77312,
                    0.0
                ],
                [
                    0.77312,
                    -2.30781,
                    -0.0
                ],
                [
                    -0.0,
                    0.0,
                    -1.59424
                ]
            ],
            [
                [
                    -1.70203,
                    -0.09056,
                    0.00264
                ],
                [
                    -0.09056,
                    -1.70203,
                    0.00264
                ],
                [
                    -0.01027,
                    -0.01027,
                    -2.09345
                ]
            ],
            [
                [
                    -1.70203,
                    0.09056,
                    -0.00267
                ],
                [
                    0.09056,
                    -1.70203,
                    0.00264
                ],
                [
                    0.01027,
                    -0.01027,
                    -2.09345
                ]
            ],
            [
                [
                    -1.70203,
                    0.09056,
                    0.00264
                ],
                [
                    0.09056,
                    -1.70203,
                    -0.00267
                ],
                [
                    -0.01027,
                    0.01027,
                    -2.09345
                ]
            ],
            [
                [
                    -1.70203,
                    -0.09056,
                    -0.00267
                ],
                [
                    -0.09056,
                    -1.70203,
                    -0.00267
                ],
                [
                    0.01027,
                    0.01027,
                    -2.09345
                ]
            ]
        ]
    },
    "band_gap": 4.148000000000001,
    "is_direct": false,
    "formula": "Ba2Ti(SiO4)2"
}