{
    "mp_id": "mp-669389",
    "nelements": 4,
    "nsites": 22,
    "elements": [
        "In",
        "O",
        "Rh",
        "Sr"
    ],
    "structure": {
        "@module": "pymatgen.core.structure",
        "@class": "Structure",
        "charge": null,
        "lattice": {
            "matrix": [
                [
                    4.78918435,
                    2.76503732,
                    3.80329709
                ],
                [
                    -4.78918435,
                    2.76503732,
                    3.80329709
                ],
                [
                    0.0,
                    -5.53007364,
                    3.80329709
                ]
            ],
            "a": 6.711690314226378,
            "b": 6.711690314226378,
            "c": 6.711690041906384,
            "alpha": 91.05039690044913,
            "beta": 91.05039690044913,
            "gamma": 91.05039095557572,
            "volume": 302.18576426554046
        },
        "sites": [
            {
                "species": [
                    {
                        "element": "Sr",
                        "occu": 1
                    }
                ],
                "abc": [
                    0.25,
                    0.88128151,
                    0.61871849
                ],
                "xyz": [
                    -3.023323528136369,
                    -0.29352321755365063,
                    6.6557699075
                ],
                "label": "Sr",
                "properties": {}
            },
            {
                "species": [
                    {
                        "element": "Sr",
                        "occu": 1
                    }
                ],
                "abc": [
                    0.61871849,
                    0.25,
                    0.88128151
                ],
                "xyz": [
                    1.7658608218636316,
                    -2.47151260244635,
                    6.6557699075
                ],
                "label": "Sr",
                "properties": {}
            },
            {
                "species": [
                    {
                        "element": "Sr",
                        "occu": 1
                    }
                ],
                "abc": [
                    0.11871849,
                    0.38128151,
                    0.75
                ],
                "xyz": [
                    -1.257462706272737,
                    -2.7650365700000004,
                    4.754121362499999
                ],
                "label": "Sr",
                "properties": {}
            },
            {
                "species": [
                    {
                        "element": "Sr",
                        "occu": 1
                    }
                ],
                "abc": [
                    0.38128151,
                    0.75,
                    0.11871849
                ],
                "xyz": [
                    -1.7658608218636318,
                    2.4715136024463495,
                    4.754121362499999
                ],
                "label": "Sr",
                "properties": {}
            },
            {
                "species": [
                    {
                        "element": "Sr",
                        "occu": 1
                    }
                ],
                "abc": [
                    0.75,
                    0.11871849,
                    0.38128151
                ],
                "xyz": [
                    3.023323528136369,
                    0.2935242175536499,
                    4.7541213625
                ],
                "label": "Sr",
                "properties": {}
            },
            {
                "species": [
                    {
                        "element": "Sr",
                        "occu": 1
                    }
                ],
                "abc": [
                    0.88128151,
                    0.61871849,
                    0.25
                ],
                "xyz": [
                    1.257462706272737,
                    2.7650375699999996,
                    6.6557699075
                ],
                "label": "Sr",
                "properties": {}
            },
            {
                "species": [
                    {
                        "element": "In",
                        "occu": 1
                    }
                ],
                "abc": [
                    0.25,
                    0.25,
                    0.25
                ],
                "xyz": [
                    0.0,
                    2.499999998128999e-07,
                    2.8524728175
                ],
                "label": "In",
                "properties": {}
            },
            {
                "species": [
                    {
                        "element": "In",
                        "occu": 1
                    }
                ],
                "abc": [
                    0.75,
                    0.75,
                    0.75
                ],
                "xyz": [
                    0.0,
                    7.499999998827889e-07,
                    8.557418452499999
                ],
                "label": "In",
                "properties": {}
            },
            {
                "species": [
                    {
                        "element": "Rh",
                        "occu": 1
                    }
                ],
                "abc": [
                    0.5,
                    0.5,
                    0.5
                ],
                "xyz": [
                    0.0,
                    4.999999996257998e-07,
                    5.704945635
                ],
                "label": "Rh",
                "properties": {}
            },
            {
                "species": [
                    {
                        "element": "Rh",
                        "occu": 1
                    }
                ],
                "abc": [
                    0.0,
                    0.0,
                    0.0
                ],
                "xyz": [
                    0.0,
                    0.0,
                    0.0
                ],
                "label": "Rh",
                "properties": {}
            },
            {
                "species": [
                    {
                        "element": "O",
                        "occu": 1
                    }
                ],
                "abc": [
                    0.04243542,
                    0.71110517,
                    0.90794228
                ],
                "xyz": [
                    -3.2023827020184124,
                    -2.937419815784681,
                    6.319112964555849
                ],
                "label": "O",
                "properties": {}
            },
            {
                "species": [
                    {
                        "element": "O",
                        "occu": 1
                    }
                ],
                "abc": [
                    0.09205772,
                    0.95756458,
                    0.28889483
                ],
                "xyz": [
                    -4.1450719087296415,
                    1.3046351472889546,
                    5.090778305444152
                ],
                "label": "O",
                "properties": {}
            },
            {
                "species": [
                    {
                        "element": "O",
                        "occu": 1
                    }
                ],
                "abc": [
                    0.59205772,
                    0.78889483,
                    0.45756458
                ],
                "xyz": [
                    -0.9426892067112287,
                    1.2880195154434944,
                    6.9924268504441525
                ],
                "label": "O",
                "properties": {}
            },
            {
                "species": [
                    {
                        "element": "O",
                        "occu": 1
                    }
                ],
                "abc": [
                    0.45756458,
                    0.59205772,
                    0.78889483
                ],
                "xyz": [
                    -0.6441124412703592,
                    -1.460401672711046,
                    6.9924268504441525
                ],
                "label": "O",
                "properties": {}
            },
            {
                "species": [
                    {
                        "element": "O",
                        "occu": 1
                    }
                ],
                "abc": [
                    0.78889483,
                    0.45756458,
                    0.59205772
                ],
                "xyz": [
                    1.5868016479815878,
                    0.17238399578468,
                    6.992426850444152
                ],
                "label": "O",
                "properties": {}
            },
            {
                "species": [
                    {
                        "element": "O",
                        "occu": 1
                    }
                ],
                "abc": [
                    0.90794228,
                    0.04243542,
                    0.71110517
                ],
                "xyz": [
                    4.1450719087296415,
                    -1.3046341472889549,
                    6.319112964555849
                ],
                "label": "O",
                "properties": {}
            },
            {
                "species": [
                    {
                        "element": "O",
                        "occu": 1
                    }
                ],
                "abc": [
                    0.54243542,
                    0.40794228,
                    0.21110517
                ],
                "xyz": [
                    0.6441124412703589,
                    1.4604026727110448,
                    4.417464419555849
                ],
                "label": "O",
                "properties": {}
            },
            {
                "species": [
                    {
                        "element": "O",
                        "occu": 1
                    }
                ],
                "abc": [
                    0.95756458,
                    0.28889483,
                    0.09205772
                ],
                "xyz": [
                    3.202382702018413,
                    2.93742081578468,
                    5.090778305444152
                ],
                "label": "O",
                "properties": {}
            },
            {
                "species": [
                    {
                        "element": "O",
                        "occu": 1
                    }
                ],
                "abc": [
                    0.40794228,
                    0.21110517,
                    0.54243542
                ],
                "xyz": [
                    0.9426892067112285,
                    -1.288018515443495,
                    4.417464419555849
                ],
                "label": "O",
                "properties": {}
            },
            {
                "species": [
                    {
                        "element": "O",
                        "occu": 1
                    }
                ],
                "abc": [
                    0.21110517,
                    0.54243542,
                    0.40794228
                ],
                "xyz": [
                    -1.5868016479815874,
                    -0.1723829957846803,
                    4.417464419555849
                ],
                "label": "O",
                "properties": {}
            },
            {
                "species": [
                    {
                        "element": "O",
                        "occu": 1
                    }
                ],
                "abc": [
                    0.71110517,
                    0.90794228,
                    0.04243542
                ],
                "xyz": [
                    -0.9426892067112291,
                    4.242055624556505,
                    6.319112964555849
                ],
                "label": "O",
                "properties": {}
            },
            {
                "species": [
                    {
                        "element": "O",
                        "occu": 1
                    }
                ],
                "abc": [
                    0.28889483,
                    0.09205772,
                    0.95756458
                ],
                "xyz": [
                    0.9426892067112285,
                    -4.242054624556506,
                    5.090778305444152
                ],
                "label": "O",
                "properties": {}
            }
        ]
    },
    "spacegroup": {
        "source": "spglib",
        "symbol": "R-3c",
        "number": 167,
        "point_group": "-3m",
        "crystal_system": "trigonal",
        "hall": "-R 3 2\"c"
    },
    "dielectric": {
        "epsilon_ionic": [
            [
                8.05964927,
                -1e-08,
                -1e-08
            ],
            [
                -1e-08,
                8.05968859,
                -6.22e-06
            ],
            [
                -1e-08,
                -6.22e-06,
                8.27675689
            ]
        ],
        "epsilon_ionic_avg": 8.132031583333335,
        "epsilon_ionic_eig": [
            8.059649269997454,
            8.059688589824315,
            8.276756890178234
        ],
        "epsilon_electronic": [
            [
                4.4822179,
                -0.0,
                0.0
            ],
            [
                -0.0,
                4.48221896,
                0.0
            ],
            [
                -0.0,
                0.0,
                5.47640326
            ]
        ],
        "epsilon_electronic_avg": 4.813613373333333,
        "epsilon_electronic_eig": [
            4.4822179,
            4.48221896,
            5.47640326
        ]
    },
    "phonon": {
        "lowest_freq": -0.01733847653677349,
        "frequency": [
            -0.01733847653677349,
            -0.017338474492878737,
            -0.016109863222196107,
            3.04167791511948,
            3.0416781521532426,
            3.4437980648397453,
            3.478583360840974,
            3.4785833889443833,
            3.5762605728041534,
            3.576260586472069,
            3.5804731537836427,
            3.6244261753406772,
            3.928069549433948,
            4.424428680271012,
            4.424428915035906,
            4.638590788760081,
            4.708367704812736,
            4.708368156408952,
            4.889467019874322,
            4.889467319784463,
            5.123911927934008,
            5.208664394845146,
            5.208664770219873,
            5.583480328192592,
            5.583480503280611,
            5.8376966716170315,
            5.837696943745048,
            6.109112317829076,
            6.551671136135589,
            6.868215417004359,
            6.882000434488721,
            7.777705002609221,
            8.027289320811578,
            8.51159349045848,
            8.51159392116536,
            8.698247093258448,
            8.986168666199866,
            8.986169142153784,
            9.895336356650274,
            9.895336443095083,
            11.004617125484847,
            11.004617236529205,
            11.052516645771156,
            11.052516645771156,
            11.215984703935527,
            11.215984965419617,
            11.673013937803727,
            11.673013990146705,
            12.45619927657469,
            12.456199335436978,
            12.849333723450894,
            13.577034509788007,
            13.991055605049647,
            14.397547790806223,
            14.805833991848596,
            14.805834429284502,
            14.924679514046161,
            15.640753557182551,
            15.798668871213849,
            15.798669490000476,
            15.868293932867314,
            15.868293932867314,
            16.337115497019578,
            16.33711609541194,
            16.459939453992757,
            17.153670094428893
        ]
    },
    "born_effective_charge": {
        "avg_abs_trace": 2.2482510606060613,
        "tensors": [
            [
                [
                    2.86027,
                    0.11869,
                    -0.32286
                ],
                [
                    0.119,
                    2.72321,
                    -0.18634
                ],
                [
                    -0.21707,
                    -0.12532,
                    2.32781
                ]
            ],
            [
                [
                    2.86027,
                    -0.11869,
                    0.32286
                ],
                [
                    -0.11861,
                    2.72293,
                    -0.18645
                ],
                [
                    0.21706,
                    -0.12533,
                    2.32781
                ]
            ],
            [
                [
                    2.65435,
                    0.0,
                    0.0
                ],
                [
                    0.00012,
                    2.92884,
                    0.37278
                ],
                [
                    -1e-05,
                    0.25065,
                    2.32781
                ]
            ],
            [
                [
                    2.86022,
                    -0.11889,
                    0.32281
                ],
                [
                    -0.119,
                    2.72321,
                    -0.18634
                ],
                [
                    0.21707,
                    -0.12532,
                    2.32781
                ]
            ],
            [
                [
                    2.86022,
                    0.11889,
                    -0.32281
                ],
                [
                    0.11861,
                    2.72293,
                    -0.18645
                ],
                [
                    -0.21706,
                    -0.12533,
                    2.32781
                ]
            ],
            [
                [
                    2.65458,
                    0.0,
                    -0.0
                ],
                [
                    -0.00012,
                    2.92884,
                    0.37278
                ],
                [
                    1e-05,
                    0.25065,
                    2.32781
                ]
            ],
            [
                [
                    2.19105,
                    0.0,
                    0.0
                ],
                [
                    8e-05,
                    2.19106,
                    -0.0
                ],
                [
                    0.0,
                    0.0,
                    4.64242
                ]
            ],
            [
                [
                    2.19107,
                    0.0,
                    0.0
                ],
                [
                    -8e-05,
                    2.19106,
                    -0.0
                ],
                [
                    0.0,
                    0.0,
                    4.64242
                ]
            ],
            [
                [
                    1.16947,
                    -0.04774,
                    0.0
                ],
                [
                    0.04774,
                    1.16948,
                    0.0
                ],
                [
                    0.0,
                    0.0,
                    1.9993
                ]
            ],
            [
                [
                    1.16947,
                    0.04774,
                    -0.0
                ],
                [
                    -0.04774,
                    1.16948,
                    0.0
                ],
                [
                    0.0,
                    0.0,
                    1.9993
                ]
            ],
            [
                [
                    -2.41314,
                    0.07635,
                    0.35543
                ],
                [
                    0.01523,
                    -1.49873,
                    -0.03355
                ],
                [
                    0.36762,
                    0.00263,
                    -2.27089
                ]
            ],
            [
                [
                    -1.68773,
                    0.40365,
                    -0.14862
                ],
                [
                    0.34268,
                    -2.22407,
                    0.32474
                ],
                [
                    -0.18619,
                    0.31689,
                    -2.27082
                ]
            ],
            [
                [
                    -1.76684,
                    0.38828,
                    0.20685
                ],
                [
                    0.44942,
                    -2.14494,
                    -0.29106
                ],
                [
                    0.18134,
                    -0.3197,
                    -2.27082
                ]
            ],
            [
                [
                    -1.68766,
                    -0.40365,
                    0.14862
                ],
                [
                    -0.34268,
                    -2.22407,
                    0.32474
                ],
                [
                    0.18619,
                    0.31689,
                    -2.27082
                ]
            ],
            [
                [
                    -2.41314,
                    -0.07635,
                    -0.35543
                ],
                [
                    -0.01514,
                    -1.49865,
                    -0.03366
                ],
                [
                    -0.36754,
                    0.0028,
                    -2.27082
                ]
            ],
            [
                [
                    -1.68766,
                    0.40365,
                    -0.14862
                ],
                [
                    0.34244,
                    -2.2242,
                    0.32454
                ],
                [
                    -0.18609,
                    0.31706,
                    -2.27089
                ]
            ],
            [
                [
                    -1.68773,
                    -0.40365,
                    0.14862
                ],
                [
                    -0.34244,
                    -2.2242,
                    0.32454
                ],
                [
                    0.18609,
                    0.31706,
                    -2.27089
                ]
            ],
            [
                [
                    -2.41314,
                    0.07619,
                    0.35549
                ],
                [
                    0.01514,
                    -1.49865,
                    -0.03366
                ],
                [
                    0.36754,
                    0.0028,
                    -2.27082
                ]
            ],
            [
                [
                    -1.76697,
                    0.38829,
                    0.20682
                ],
                [
                    0.44935,
                    -2.14493,
                    -0.291
                ],
                [
                    0.18154,
                    -0.31968,
                    -2.27089
                ]
            ],
            [
                [
                    -2.41314,
                    -0.07619,
                    -0.35549
                ],
                [
                    -0.01523,
                    -1.49873,
                    -0.03355
                ],
                [
                    -0.36762,
                    0.00263,
                    -2.27089
                ]
            ],
            [
                [
                    -1.76684,
                    -0.38828,
                    -0.20685
                ],
                [
                    -0.44935,
                    -2.14493,
                    -0.291
                ],
                [
                    -0.18154,
                    -0.31968,
                    -2.27089
                ]
            ],
            [
                [
                    -1.76697,
                    -0.38829,
                    -0.20682
                ],
                [
                    -0.44942,
                    -2.14494,
                    -0.29106
                ],
                [
                    -0.18134,
                    -0.3197,
                    -2.27082
                ]
            ]
        ]
    },
    "band_gap": 1.9404,
    "is_direct": false,
    "formula": "Sr3InRhO6"
}