{
    "mp_id": "mp-6066",
    "nelements": 4,
    "nsites": 16,
    "elements": [
        "Ge",
        "Na",
        "O",
        "Ta"
    ],
    "structure": {
        "@module": "pymatgen.core.structure",
        "@class": "Structure",
        "charge": null,
        "lattice": {
            "matrix": [
                [
                    3.42349971,
                    -4.48794476,
                    0.00023248
                ],
                [
                    3.42349971,
                    4.48794476,
                    0.00023248
                ],
                [
                    -3.1122542,
                    0.0,
                    6.75530443
                ]
            ],
            "a": 5.64464334455495,
            "b": 5.64464334455495,
            "c": 7.4377593499248995,
            "alpha": 104.69941378834925,
            "beta": 104.69941378834925,
            "gamma": 105.32568289248017,
            "volume": 207.5899413673587
        },
        "sites": [
            {
                "species": [
                    {
                        "element": "Na",
                        "occu": 1
                    }
                ],
                "abc": [
                    0.67390375,
                    0.32609625,
                    0.25
                ],
                "xyz": [
                    2.64543616,
                    -1.5609408471137005,
                    1.6890585875
                ],
                "label": "Na",
                "properties": {}
            },
            {
                "species": [
                    {
                        "element": "Na",
                        "occu": 1
                    }
                ],
                "abc": [
                    0.32609625,
                    0.67390375,
                    0.75
                ],
                "xyz": [
                    1.0893090600000002,
                    1.5609408471137005,
                    5.0667108025
                ],
                "label": "Na",
                "properties": {}
            },
            {
                "species": [
                    {
                        "element": "Ta",
                        "occu": 1
                    }
                ],
                "abc": [
                    0.0,
                    0.0,
                    0.5
                ],
                "xyz": [
                    -1.5561271,
                    0.0,
                    3.377652215
                ],
                "label": "Ta",
                "properties": {}
            },
            {
                "species": [
                    {
                        "element": "Ta",
                        "occu": 1
                    }
                ],
                "abc": [
                    0.0,
                    0.0,
                    0.0
                ],
                "xyz": [
                    0.0,
                    0.0,
                    0.0
                ],
                "label": "Ta",
                "properties": {}
            },
            {
                "species": [
                    {
                        "element": "Ge",
                        "occu": 1
                    }
                ],
                "abc": [
                    0.68373295,
                    0.31626705,
                    0.75
                ],
                "xyz": [
                    1.0893090600000006,
                    -1.649166660383684,
                    5.0667108025
                ],
                "label": "Ge",
                "properties": {}
            },
            {
                "species": [
                    {
                        "element": "Ge",
                        "occu": 1
                    }
                ],
                "abc": [
                    0.31626705,
                    0.68373295,
                    0.25
                ],
                "xyz": [
                    2.6454361600000005,
                    1.649166660383684,
                    1.6890585875
                ],
                "label": "Ge",
                "properties": {}
            },
            {
                "species": [
                    {
                        "element": "O",
                        "occu": 1
                    }
                ],
                "abc": [
                    0.06782446,
                    0.93217554,
                    0.75
                ],
                "xyz": [
                    1.0893090600000006,
                    3.8791599002863415,
                    5.0667108025
                ],
                "label": "O",
                "properties": {}
            },
            {
                "species": [
                    {
                        "element": "O",
                        "occu": 1
                    }
                ],
                "abc": [
                    0.93217554,
                    0.06782446,
                    0.25
                ],
                "xyz": [
                    2.6454361600000005,
                    -3.8791599002863415,
                    1.6890585875
                ],
                "label": "O",
                "properties": {}
            },
            {
                "species": [
                    {
                        "element": "O",
                        "occu": 1
                    }
                ],
                "abc": [
                    0.10098351,
                    0.69188922,
                    0.38799568
                ],
                "xyz": [
                    1.5068583765600523,
                    2.6519521848485796,
                    2.621213262977133
                ],
                "label": "O",
                "properties": {}
            },
            {
                "species": [
                    {
                        "element": "O",
                        "occu": 1
                    }
                ],
                "abc": [
                    0.30811078,
                    0.89901649,
                    0.11200432
                ],
                "xyz": [
                    3.7840139434399482,
                    2.651952184848579,
                    0.7569039120228672
                ],
                "label": "O",
                "properties": {}
            },
            {
                "species": [
                    {
                        "element": "O",
                        "occu": 1
                    }
                ],
                "abc": [
                    0.89901649,
                    0.30811078,
                    0.61200432
                ],
                "xyz": [
                    2.227886843439948,
                    -2.651952184848579,
                    4.134556127022868
                ],
                "label": "O",
                "properties": {}
            },
            {
                "species": [
                    {
                        "element": "O",
                        "occu": 1
                    }
                ],
                "abc": [
                    0.69188922,
                    0.10098351,
                    0.88799568
                ],
                "xyz": [
                    -0.04926872343994759,
                    -2.6519521848485796,
                    5.998865477977133
                ],
                "label": "O",
                "properties": {}
            },
            {
                "species": [
                    {
                        "element": "O",
                        "occu": 1
                    }
                ],
                "abc": [
                    0.36552626,
                    0.24480759,
                    0.58447239
                ],
                "xyz": [
                    0.27045110791664584,
                    -0.5417787224606694,
                    3.9484308157931354
                ],
                "label": "O",
                "properties": {}
            },
            {
                "species": [
                    {
                        "element": "O",
                        "occu": 1
                    }
                ],
                "abc": [
                    0.75519241,
                    0.63447374,
                    0.91552761
                ],
                "xyz": [
                    1.908167012083355,
                    -0.5417787224606694,
                    6.184990789206865
                ],
                "label": "O",
                "properties": {}
            },
            {
                "species": [
                    {
                        "element": "O",
                        "occu": 1
                    }
                ],
                "abc": [
                    0.63447374,
                    0.75519241,
                    0.41552761
                ],
                "xyz": [
                    3.4642941120833557,
                    0.5417787224606694,
                    2.807338574206864
                ],
                "label": "O",
                "properties": {}
            },
            {
                "species": [
                    {
                        "element": "O",
                        "occu": 1
                    }
                ],
                "abc": [
                    0.24480759,
                    0.36552626,
                    0.08447239
                ],
                "xyz": [
                    1.8265782079166457,
                    0.5417787224606694,
                    0.5707786007931357
                ],
                "label": "O",
                "properties": {}
            }
        ]
    },
    "spacegroup": {
        "source": "spglib",
        "symbol": "C2/c",
        "number": 15,
        "point_group": "2/m",
        "crystal_system": "monoclinic",
        "hall": "-C 2yc"
    },
    "dielectric": {
        "epsilon_ionic": [
            [
                11.56263919,
                -0.0,
                -4.56466884
            ],
            [
                -0.0,
                7.97066595,
                -0.0
            ],
            [
                -4.56466884,
                -0.0,
                22.96102513
            ]
        ],
        "epsilon_ionic_avg": 14.164776756666667,
        "epsilon_ionic_eig": [
            9.959982933388678,
            24.56368138661132,
            7.97066595
        ],
        "epsilon_electronic": [
            [
                3.66443288,
                0.0,
                -0.13309569
            ],
            [
                0.0,
                3.73109878,
                0.0
            ],
            [
                -0.1330955,
                0.0,
                4.19851072
            ]
        ],
        "epsilon_electronic_avg": 3.8646807933333336,
        "epsilon_electronic_eig": [
            3.6331025284535468,
            4.229841071546454,
            3.73109878
        ]
    },
    "phonon": {
        "lowest_freq": -0.042037909834847245,
        "frequency": [
            -0.042037909834847245,
            -0.03570864512732866,
            -0.021780621671669775,
            1.5846285222112284,
            2.150914069610242,
            2.2065669948887243,
            2.8413360847848197,
            3.235763351273367,
            3.77418202310647,
            3.9281875955622234,
            4.059011949982666,
            4.659595059336267,
            4.695714999858881,
            5.409755332613664,
            5.568389056954856,
            5.928807199419772,
            6.011935775310598,
            6.475920611017961,
            6.677446611962799,
            6.841368861803842,
            6.870749187060735,
            7.208630131085764,
            7.4919032959643435,
            8.48311181756611,
            9.182985080546317,
            9.293924119089684,
            9.645513857817328,
            9.910789267047605,
            11.608638168097599,
            11.787797210040518,
            11.991213886246152,
            12.453074297725914,
            12.707958965643602,
            12.724277308564492,
            14.0079980646015,
            14.168585014242993,
            14.255716228601646,
            14.65720570670287,
            16.503435480047873,
            20.96193448342654,
            21.151130350313586,
            21.373728430345448,
            22.284588698429637,
            22.48274562442113,
            22.671938089944632,
            25.776800226955807,
            26.733130270656233,
            27.563557202185848
        ]
    },
    "born_effective_charge": {
        "avg_abs_trace": 2.9561256250000003,
        "tensors": [
            [
                [
                    1.21187,
                    -1e-05,
                    0.01246
                ],
                [
                    0.0,
                    1.14714,
                    0.0
                ],
                [
                    0.02965,
                    4e-05,
                    1.0414
                ]
            ],
            [
                [
                    1.21187,
                    1e-05,
                    0.01246
                ],
                [
                    0.0,
                    1.14715,
                    0.0
                ],
                [
                    0.02965,
                    -4e-05,
                    1.0414
                ]
            ],
            [
                [
                    6.41242,
                    -0.68226,
                    -1.37319
                ],
                [
                    -1.26486,
                    5.99707,
                    0.29886
                ],
                [
                    -0.05897,
                    -0.41551,
                    8.32726
                ]
            ],
            [
                [
                    6.41242,
                    0.68226,
                    -1.37319
                ],
                [
                    1.26486,
                    5.99707,
                    -0.29886
                ],
                [
                    -0.05897,
                    0.41551,
                    8.32726
                ]
            ],
            [
                [
                    3.51496,
                    3e-05,
                    1.07428
                ],
                [
                    0.0,
                    4.19185,
                    0.0
                ],
                [
                    -0.08531,
                    -2e-05,
                    3.62946
                ]
            ],
            [
                [
                    3.51496,
                    -3e-05,
                    1.07428
                ],
                [
                    0.0,
                    4.19198,
                    0.0
                ],
                [
                    -0.08531,
                    2e-05,
                    3.62946
                ]
            ],
            [
                [
                    -1.9322,
                    -1e-05,
                    1.88704
                ],
                [
                    -0.0,
                    -1.35522,
                    0.0
                ],
                [
                    1.84358,
                    -1e-05,
                    -5.38866
                ]
            ],
            [
                [
                    -1.9322,
                    1e-05,
                    1.88704
                ],
                [
                    0.0,
                    -1.35531,
                    0.0
                ],
                [
                    1.84358,
                    1e-05,
                    -5.38866
                ]
            ],
            [
                [
                    -1.45579,
                    0.34654,
                    0.24665
                ],
                [
                    0.12185,
                    -3.05469,
                    -0.97179
                ],
                [
                    0.19108,
                    -1.12389,
                    -1.9195
                ]
            ],
            [
                [
                    -1.45589,
                    -0.3464,
                    0.24668
                ],
                [
                    -0.12185,
                    -3.05469,
                    0.97179
                ],
                [
                    0.19126,
                    1.12349,
                    -1.91937
                ]
            ],
            [
                [
                    -1.45589,
                    0.3464,
                    0.24668
                ],
                [
                    0.12192,
                    -3.05482,
                    -0.97186
                ],
                [
                    0.19126,
                    -1.12349,
                    -1.91937
                ]
            ],
            [
                [
                    -1.45579,
                    -0.34654,
                    0.24665
                ],
                [
                    -0.12192,
                    -3.05482,
                    0.97186
                ],
                [
                    0.19108,
                    1.12389,
                    -1.9195
                ]
            ],
            [
                [
                    -3.14777,
                    0.96129,
                    -1.04694
                ],
                [
                    1.22516,
                    -1.93554,
                    0.60852
                ],
                [
                    -1.05548,
                    0.57821,
                    -1.88528
                ]
            ],
            [
                [
                    -3.14761,
                    -0.96136,
                    -1.04697
                ],
                [
                    -1.22516,
                    -1.93554,
                    -0.60852
                ],
                [
                    -1.05581,
                    -0.57827,
                    -1.88531
                ]
            ],
            [
                [
                    -3.14761,
                    0.96136,
                    -1.04697
                ],
                [
                    1.22507,
                    -1.93582,
                    0.60845
                ],
                [
                    -1.05581,
                    0.57827,
                    -1.88531
                ]
            ],
            [
                [
                    -3.14777,
                    -0.96129,
                    -1.04694
                ],
                [
                    -1.22507,
                    -1.93582,
                    -0.60845
                ],
                [
                    -1.05548,
                    -0.57821,
                    -1.88528
                ]
            ]
        ]
    },
    "band_gap": 3.4865,
    "is_direct": true,
    "formula": "NaTaGeO5"
}