{
    "mp_id": "mp-6766",
    "nelements": 4,
    "nsites": 20,
    "elements": [
        "Ca",
        "Mg",
        "O",
        "Si"
    ],
    "structure": {
        "@module": "pymatgen.core.structure",
        "@class": "Structure",
        "charge": null,
        "lattice": {
            "matrix": [
                [
                    4.88652699,
                    -4.44384794,
                    -0.00032301
                ],
                [
                    4.88652699,
                    4.44384794,
                    -0.00032301
                ],
                [
                    -1.45106743,
                    0.0,
                    5.06121812
                ]
            ],
            "a": 6.604992857087445,
            "b": 6.604992857087445,
            "c": 5.265123507062597,
            "alpha": 101.76758345438955,
            "beta": 101.76758345438955,
            "gamma": 84.56728452901226,
            "volume": 219.80436409475635
        },
        "sites": [
            {
                "species": [
                    {
                        "element": "Ca",
                        "occu": 1
                    }
                ],
                "abc": [
                    0.69917,
                    0.30083,
                    0.75
                ],
                "xyz": [
                    3.7982264175000005,
                    -1.7701623884196,
                    3.7955905800000007
                ],
                "label": "Ca",
                "properties": {}
            },
            {
                "species": [
                    {
                        "element": "Ca",
                        "occu": 1
                    }
                ],
                "abc": [
                    0.30083,
                    0.69917,
                    0.25
                ],
                "xyz": [
                    4.5237601325000005,
                    1.7701623884196,
                    1.26498152
                ],
                "label": "Ca",
                "properties": {}
            },
            {
                "species": [
                    {
                        "element": "Mg",
                        "occu": 1
                    }
                ],
                "abc": [
                    0.09082744,
                    0.90917256,
                    0.75
                ],
                "xyz": [
                    3.7982264175000005,
                    3.636601275721053,
                    3.7955905800000007
                ],
                "label": "Mg",
                "properties": {}
            },
            {
                "species": [
                    {
                        "element": "Mg",
                        "occu": 1
                    }
                ],
                "abc": [
                    0.90917256,
                    0.09082744,
                    0.25
                ],
                "xyz": [
                    4.5237601325000005,
                    -3.636601275721053,
                    1.26498152
                ],
                "label": "Mg",
                "properties": {}
            },
            {
                "species": [
                    {
                        "element": "Si",
                        "occu": 1
                    }
                ],
                "abc": [
                    0.38077724,
                    0.19200799,
                    0.2314169
                ],
                "xyz": [
                    2.4631289595267907,
                    -0.8388618427478453,
                    1.1710663921970859
                ],
                "label": "Si",
                "properties": {}
            },
            {
                "species": [
                    {
                        "element": "Si",
                        "occu": 1
                    }
                ],
                "abc": [
                    0.61922276,
                    0.80799201,
                    0.7685831
                ],
                "xyz": [
                    5.85885759047321,
                    0.8388618427478454,
                    3.8895057078029143
                ],
                "label": "Si",
                "properties": {}
            },
            {
                "species": [
                    {
                        "element": "Si",
                        "occu": 1
                    }
                ],
                "abc": [
                    0.80799201,
                    0.61922276,
                    0.2685831
                ],
                "xyz": [
                    6.5843913054732095,
                    -0.8388618427478454,
                    1.3588966478029145
                ],
                "label": "Si",
                "properties": {}
            },
            {
                "species": [
                    {
                        "element": "Si",
                        "occu": 1
                    }
                ],
                "abc": [
                    0.19200799,
                    0.38077724,
                    0.7314169
                ],
                "xyz": [
                    1.7375952445267908,
                    0.8388618427478453,
                    3.7016754521970863
                ],
                "label": "Si",
                "properties": {}
            },
            {
                "species": [
                    {
                        "element": "O",
                        "occu": 1
                    }
                ],
                "abc": [
                    0.66668918,
                    0.63022072,
                    0.50271894
                ],
                "xyz": [
                    5.607906149670076,
                    -0.1620602908459725,
                    2.543951293528394
                ],
                "label": "O",
                "properties": {}
            },
            {
                "species": [
                    {
                        "element": "O",
                        "occu": 1
                    }
                ],
                "abc": [
                    0.36977928,
                    0.33331082,
                    0.99728106
                ],
                "xyz": [
                    1.9885466853299232,
                    -0.1620602908459723,
                    5.047229866471607
                ],
                "label": "O",
                "properties": {}
            },
            {
                "species": [
                    {
                        "element": "O",
                        "occu": 1
                    }
                ],
                "abc": [
                    0.33331082,
                    0.36977928,
                    0.49728106
                ],
                "xyz": [
                    2.714080400329923,
                    0.1620602908459723,
                    2.5166208064716065
                ],
                "label": "O",
                "properties": {}
            },
            {
                "species": [
                    {
                        "element": "O",
                        "occu": 1
                    }
                ],
                "abc": [
                    0.63022072,
                    0.66668918,
                    0.00271894
                ],
                "xyz": [
                    6.333439864670076,
                    0.1620602908459725,
                    0.013342233528393801
                ],
                "label": "O",
                "properties": {}
            },
            {
                "species": [
                    {
                        "element": "O",
                        "occu": 1
                    }
                ],
                "abc": [
                    0.88988777,
                    0.38517423,
                    0.17657158
                ],
                "xyz": [
                    5.974407608121741,
                    -2.2428702250191073,
                    0.8932554223964096
                ],
                "label": "O",
                "properties": {}
            },
            {
                "species": [
                    {
                        "element": "O",
                        "occu": 1
                    }
                ],
                "abc": [
                    0.61482577,
                    0.11011223,
                    0.32342842
                ],
                "xyz": [
                    3.07311265687826,
                    -2.2428702250191077,
                    1.6367076176035906
                ],
                "label": "O",
                "properties": {}
            },
            {
                "species": [
                    {
                        "element": "O",
                        "occu": 1
                    }
                ],
                "abc": [
                    0.11011223,
                    0.61482577,
                    0.82342842
                ],
                "xyz": [
                    2.3475789418782598,
                    2.2428702250191077,
                    4.167316677603591
                ],
                "label": "O",
                "properties": {}
            },
            {
                "species": [
                    {
                        "element": "O",
                        "occu": 1
                    }
                ],
                "abc": [
                    0.38517423,
                    0.88988777,
                    0.67657158
                ],
                "xyz": [
                    5.248873893121741,
                    2.2428702250191073,
                    3.4238644823964095
                ],
                "label": "O",
                "properties": {}
            },
            {
                "species": [
                    {
                        "element": "O",
                        "occu": 1
                    }
                ],
                "abc": [
                    0.79651379,
                    0.97413361,
                    0.85745632
                ],
                "xyz": [
                    7.408089371273668,
                    0.7893154712101706,
                    4.339201527075845
                ],
                "label": "O",
                "properties": {}
            },
            {
                "species": [
                    {
                        "element": "O",
                        "occu": 1
                    }
                ],
                "abc": [
                    0.02586639,
                    0.20348621,
                    0.64254368
                ],
                "xyz": [
                    0.18836346372633173,
                    0.7893154712101709,
                    3.2519796329241553
                ],
                "label": "O",
                "properties": {}
            },
            {
                "species": [
                    {
                        "element": "O",
                        "occu": 1
                    }
                ],
                "abc": [
                    0.20348621,
                    0.02586639,
                    0.14254368
                ],
                "xyz": [
                    0.9138971787263316,
                    -0.7893154712101709,
                    0.7213705729241556
                ],
                "label": "O",
                "properties": {}
            },
            {
                "species": [
                    {
                        "element": "O",
                        "occu": 1
                    }
                ],
                "abc": [
                    0.97413361,
                    0.79651379,
                    0.35745632
                ],
                "xyz": [
                    8.13362308627367,
                    -0.7893154712101706,
                    1.8085924670758446
                ],
                "label": "O",
                "properties": {}
            }
        ]
    },
    "spacegroup": {
        "source": "spglib",
        "symbol": "C2/c",
        "number": 15,
        "point_group": "2/m",
        "crystal_system": "monoclinic",
        "hall": "-C 2yc"
    },
    "dielectric": {
        "epsilon_ionic": [
            [
                6.40886185,
                0.0,
                -0.64399048
            ],
            [
                0.0,
                4.76168361,
                -0.0
            ],
            [
                -0.64399048,
                -0.0,
                5.08128521
            ]
        ],
        "epsilon_ionic_avg": 5.41727689,
        "epsilon_ionic_eig": [
            6.669918745211201,
            4.820228314788799,
            4.76168361
        ],
        "epsilon_electronic": [
            [
                3.00032496,
                0.0,
                0.05297608
            ],
            [
                0.0,
                3.01646851,
                0.0
            ],
            [
                0.05297544,
                0.0,
                3.09877043
            ]
        ],
        "epsilon_electronic_avg": 3.0385213000000006,
        "epsilon_electronic_eig": [
            2.9772337351557527,
            3.1218616548442473,
            3.01646851
        ]
    },
    "phonon": {
        "lowest_freq": -0.10062381420557251,
        "frequency": [
            -0.10062381420557251,
            -0.08257925755838426,
            -0.029504809308500354,
            3.321576353268375,
            3.8741692608775327,
            4.074453062559004,
            4.729664953259489,
            4.794056445714528,
            5.258905139867335,
            5.604323864937729,
            6.321474117431907,
            6.635999055280557,
            6.711604434793736,
            6.814954138369685,
            7.34090931316608,
            7.844201541611234,
            8.384401540694359,
            8.73268792664678,
            8.825223810435912,
            8.834526812763048,
            9.059244204617487,
            9.323145139658164,
            9.547871464990404,
            9.57421538402306,
            10.162714262970088,
            10.379010398029111,
            10.584788815793274,
            10.602120282019056,
            10.672656199116908,
            11.066191377709707,
            11.341370366540227,
            11.466208535942226,
            11.887026693211158,
            12.449687817585342,
            12.971065228947328,
            13.677429547781985,
            13.68191725581483,
            14.294539017878304,
            14.505740172639163,
            14.773602676920365,
            14.807779405648873,
            14.876699985927708,
            15.33269889184823,
            15.990171012212816,
            18.259008683747798,
            19.198734926175824,
            19.73154751710101,
            20.68216112117716,
            25.42280514998706,
            25.475836735967867,
            26.648531220677665,
            26.66086025005311,
            28.157769819054234,
            28.22381118554185,
            28.585428668956176,
            29.55128635296485,
            30.600465878537797,
            30.778451919193756,
            30.90283373827816,
            31.3255150106052
        ]
    },
    "born_effective_charge": {
        "avg_abs_trace": 2.168658333333333,
        "tensors": [
            [
                [
                    2.42346,
                    6e-05,
                    0.19098
                ],
                [
                    -0.0,
                    2.384,
                    0.0
                ],
                [
                    0.16767,
                    -4e-05,
                    2.54103
                ]
            ],
            [
                [
                    2.42346,
                    -6e-05,
                    0.19098
                ],
                [
                    -0.0,
                    2.38408,
                    0.0
                ],
                [
                    0.16767,
                    4e-05,
                    2.54103
                ]
            ],
            [
                [
                    2.19745,
                    -0.0,
                    0.08019
                ],
                [
                    -0.0,
                    2.19024,
                    0.0
                ],
                [
                    0.06238,
                    -0.0,
                    2.03999
                ]
            ],
            [
                [
                    2.19745,
                    0.0,
                    0.08019
                ],
                [
                    -0.0,
                    2.19024,
                    0.0
                ],
                [
                    0.06238,
                    0.0,
                    2.03999
                ]
            ],
            [
                [
                    2.95216,
                    -0.15076,
                    -0.06274
                ],
                [
                    0.16622,
                    3.03241,
                    -0.03653
                ],
                [
                    -0.04291,
                    -0.04915,
                    3.39228
                ]
            ],
            [
                [
                    2.95217,
                    -0.15083,
                    -0.06282
                ],
                [
                    0.16623,
                    3.03238,
                    -0.03652
                ],
                [
                    -0.0428,
                    -0.04907,
                    3.39226
                ]
            ],
            [
                [
                    2.95217,
                    0.15083,
                    -0.06282
                ],
                [
                    -0.16622,
                    3.03241,
                    0.03653
                ],
                [
                    -0.0428,
                    0.04907,
                    3.39226
                ]
            ],
            [
                [
                    2.95216,
                    0.15076,
                    -0.06274
                ],
                [
                    -0.16623,
                    3.03238,
                    0.03652
                ],
                [
                    -0.04291,
                    0.04915,
                    3.39228
                ]
            ],
            [
                [
                    -1.53723,
                    0.20226,
                    0.27417
                ],
                [
                    0.18467,
                    -1.77689,
                    -0.55428
                ],
                [
                    0.28593,
                    -0.61657,
                    -2.30503
                ]
            ],
            [
                [
                    -1.53727,
                    -0.20235,
                    0.2744
                ],
                [
                    -0.18467,
                    -1.77689,
                    0.55428
                ],
                [
                    0.28593,
                    0.61684,
                    -2.30506
                ]
            ],
            [
                [
                    -1.53727,
                    0.20235,
                    0.2744
                ],
                [
                    0.18472,
                    -1.77687,
                    -0.55422
                ],
                [
                    0.28593,
                    -0.61684,
                    -2.30506
                ]
            ],
            [
                [
                    -1.53723,
                    -0.20226,
                    0.27417
                ],
                [
                    -0.18472,
                    -1.77687,
                    0.55422
                ],
                [
                    0.28593,
                    0.61657,
                    -2.30503
                ]
            ],
            [
                [
                    -1.59124,
                    -0.3077,
                    -0.17885
                ],
                [
                    -0.29213,
                    -1.92095,
                    -0.11349
                ],
                [
                    -0.17138,
                    -0.02146,
                    -1.79558
                ]
            ],
            [
                [
                    -1.59134,
                    0.30763,
                    -0.17874
                ],
                [
                    0.29213,
                    -1.92095,
                    0.11349
                ],
                [
                    -0.17137,
                    0.02136,
                    -1.79551
                ]
            ],
            [
                [
                    -1.59134,
                    -0.30763,
                    -0.17874
                ],
                [
                    -0.29214,
                    -1.92089,
                    -0.11341
                ],
                [
                    -0.17137,
                    -0.02136,
                    -1.79551
                ]
            ],
            [
                [
                    -1.59124,
                    0.3077,
                    -0.17885
                ],
                [
                    0.29214,
                    -1.92089,
                    0.11341
                ],
                [
                    -0.17138,
                    0.02146,
                    -1.79558
                ]
            ],
            [
                [
                    -2.13408,
                    -0.00073,
                    -0.16827
                ],
                [
                    -0.13714,
                    -1.62178,
                    -0.02079
                ],
                [
                    -0.18672,
                    0.02435,
                    -1.5822
                ]
            ],
            [
                [
                    -2.13409,
                    0.00079,
                    -0.16832
                ],
                [
                    0.13714,
                    -1.62178,
                    0.02079
                ],
                [
                    -0.18673,
                    -0.02428,
                    -1.58218
                ]
            ],
            [
                [
                    -2.13409,
                    -0.00079,
                    -0.16832
                ],
                [
                    -0.1371,
                    -1.62169,
                    -0.02078
                ],
                [
                    -0.18673,
                    0.02428,
                    -1.58218
                ]
            ],
            [
                [
                    -2.13408,
                    0.00073,
                    -0.16827
                ],
                [
                    0.1371,
                    -1.62169,
                    0.02078
                ],
                [
                    -0.18672,
                    -0.02435,
                    -1.5822
                ]
            ]
        ]
    },
    "band_gap": 5.0549,
    "is_direct": false,
    "formula": "CaMg(SiO3)2"
}