{
    "mp_id": "mp-6442",
    "nelements": 4,
    "nsites": 32,
    "elements": [
        "Al",
        "Li",
        "O",
        "Si"
    ],
    "structure": {
        "@module": "pymatgen.core.structure",
        "@class": "Structure",
        "charge": null,
        "lattice": {
            "matrix": [
                [
                    7.69130071,
                    0.0,
                    0.00108708
                ],
                [
                    0.0,
                    5.18511869,
                    0.0
                ],
                [
                    -4.65832515,
                    0.0,
                    10.91702951
                ]
            ],
            "a": 7.691300786823347,
            "b": 5.18511869,
            "c": 11.869352405474082,
            "alpha": 90.0,
            "beta": 113.09997168087858,
            "gamma": 90.0,
            "volume": 435.4007463582759
        },
        "sites": [
            {
                "species": [
                    {
                        "element": "Li",
                        "occu": 1
                    }
                ],
                "abc": [
                    0.0,
                    0.74346278,
                    0.25
                ],
                "xyz": [
                    -1.1645812875,
                    3.8549427558973584,
                    2.7292573775
                ],
                "label": "Li",
                "properties": {}
            },
            {
                "species": [
                    {
                        "element": "Li",
                        "occu": 1
                    }
                ],
                "abc": [
                    0.0,
                    0.25653722,
                    0.75
                ],
                "xyz": [
                    -3.4937438624999997,
                    1.330175934102642,
                    8.187772132500001
                ],
                "label": "Li",
                "properties": {}
            },
            {
                "species": [
                    {
                        "element": "Al",
                        "occu": 1
                    }
                ],
                "abc": [
                    0.0,
                    0.24315252,
                    0.25
                ],
                "xyz": [
                    -1.1645812875,
                    1.2607746759725988,
                    2.7292573775
                ],
                "label": "Al",
                "properties": {}
            },
            {
                "species": [
                    {
                        "element": "Al",
                        "occu": 1
                    }
                ],
                "abc": [
                    0.0,
                    0.75684748,
                    0.75
                ],
                "xyz": [
                    -3.4937438624999997,
                    3.9243440140274015,
                    8.187772132500001
                ],
                "label": "Al",
                "properties": {}
            },
            {
                "species": [
                    {
                        "element": "Si",
                        "occu": 1
                    }
                ],
                "abc": [
                    0.28889275,
                    0.00818031,
                    0.64772213
                ],
                "xyz": [
                    -0.7953392752017168,
                    0.0424158782709939,
                    7.0715156570207265
                ],
                "label": "Si",
                "properties": {}
            },
            {
                "species": [
                    {
                        "element": "Si",
                        "occu": 1
                    }
                ],
                "abc": [
                    0.71110725,
                    0.99181969,
                    0.35227787
                ],
                "xyz": [
                    3.828314835201717,
                    5.142702811729007,
                    3.846600932979274
                ],
                "label": "Si",
                "properties": {}
            },
            {
                "species": [
                    {
                        "element": "Si",
                        "occu": 1
                    }
                ],
                "abc": [
                    0.28889275,
                    0.99181969,
                    0.14772213
                ],
                "xyz": [
                    1.533823299798283,
                    5.142702811729007,
                    1.6130009020207263
                ],
                "label": "Si",
                "properties": {}
            },
            {
                "species": [
                    {
                        "element": "Si",
                        "occu": 1
                    }
                ],
                "abc": [
                    0.71110725,
                    0.00818031,
                    0.85227787
                ],
                "xyz": [
                    1.499152260201717,
                    0.0424158782709939,
                    9.305115687979274
                ],
                "label": "Si",
                "properties": {}
            },
            {
                "species": [
                    {
                        "element": "Si",
                        "occu": 1
                    }
                ],
                "abc": [
                    0.71113545,
                    0.51144554,
                    0.00206034
                ],
                "xyz": [
                    5.4599588578516185,
                    2.6519058283711425,
                    0.0232658537056194
                ],
                "label": "Si",
                "properties": {}
            },
            {
                "species": [
                    {
                        "element": "Si",
                        "occu": 1
                    }
                ],
                "abc": [
                    0.71113545,
                    0.48855446,
                    0.50206034
                ],
                "xyz": [
                    3.1307962828516187,
                    2.533212861628858,
                    5.48178060870562
                ],
                "label": "Si",
                "properties": {}
            },
            {
                "species": [
                    {
                        "element": "Si",
                        "occu": 1
                    }
                ],
                "abc": [
                    0.28886455,
                    0.48855446,
                    0.99793966
                ],
                "xyz": [
                    -2.426983297851618,
                    2.533212861628858,
                    10.894850736294382
                ],
                "label": "Si",
                "properties": {}
            },
            {
                "species": [
                    {
                        "element": "Si",
                        "occu": 1
                    }
                ],
                "abc": [
                    0.28886455,
                    0.51144554,
                    0.49793966
                ],
                "xyz": [
                    -0.09782072285161814,
                    2.6519058283711425,
                    5.436335981294381
                ],
                "label": "Si",
                "properties": {}
            },
            {
                "species": [
                    {
                        "element": "O",
                        "occu": 1
                    }
                ],
                "abc": [
                    0.25029201,
                    0.20124626,
                    0.0384242
                ],
                "xyz": [
                    1.7460786969916973,
                    1.0434857440185996,
                    0.4197502127363728
                ],
                "label": "O",
                "properties": {}
            },
            {
                "species": [
                    {
                        "element": "O",
                        "occu": 1
                    }
                ],
                "abc": [
                    0.13439535,
                    0.97877906,
                    0.70790232
                ],
                "xyz": [
                    -2.2639641301236493,
                    5.075085597386632,
                    7.728336616134541
                ],
                "label": "O",
                "properties": {}
            },
            {
                "species": [
                    {
                        "element": "O",
                        "occu": 1
                    }
                ],
                "abc": [
                    0.86560465,
                    0.97877906,
                    0.79209768
                ],
                "xyz": [
                    2.9677771151236496,
                    5.075085597386632,
                    8.648294728865459
                ],
                "label": "O",
                "properties": {}
            },
            {
                "species": [
                    {
                        "element": "O",
                        "occu": 1
                    }
                ],
                "abc": [
                    0.86560465,
                    0.02122094,
                    0.29209768
                ],
                "xyz": [
                    5.296939690123649,
                    0.1100330926133686,
                    3.189779973865459
                ],
                "label": "O",
                "properties": {}
            },
            {
                "species": [
                    {
                        "element": "O",
                        "occu": 1
                    }
                ],
                "abc": [
                    0.13439535,
                    0.02122094,
                    0.20790232
                ],
                "xyz": [
                    0.06519844487635051,
                    0.1100330926133686,
                    2.2698218611345413
                ],
                "label": "O",
                "properties": {}
            },
            {
                "species": [
                    {
                        "element": "O",
                        "occu": 1
                    }
                ],
                "abc": [
                    0.25029201,
                    0.79875374,
                    0.5384242
                ],
                "xyz": [
                    -0.5830838780083025,
                    4.141632945981401,
                    5.878264967736373
                ],
                "label": "O",
                "properties": {}
            },
            {
                "species": [
                    {
                        "element": "O",
                        "occu": 1
                    }
                ],
                "abc": [
                    0.74970799,
                    0.79875374,
                    0.9615758
                ],
                "xyz": [
                    1.2868968630083035,
                    4.141632945981401,
                    10.498366377263629
                ],
                "label": "O",
                "properties": {}
            },
            {
                "species": [
                    {
                        "element": "O",
                        "occu": 1
                    }
                ],
                "abc": [
                    0.74970799,
                    0.20124626,
                    0.4615758
                ],
                "xyz": [
                    3.616059438008303,
                    1.0434857440185996,
                    5.039851622263627
                ],
                "label": "O",
                "properties": {}
            },
            {
                "species": [
                    {
                        "element": "O",
                        "occu": 1
                    }
                ],
                "abc": [
                    0.26926482,
                    0.70092762,
                    0.09304999
                ],
                "xyz": [
                    1.637539592619774,
                    3.634392902799218,
                    1.0161221991357305
                ],
                "label": "O",
                "properties": {}
            },
            {
                "species": [
                    {
                        "element": "O",
                        "occu": 1
                    }
                ],
                "abc": [
                    0.13298712,
                    0.53517664,
                    0.86096786
                ],
                "xyz": [
                    -2.987824305102824,
                    2.7749543985154017,
                    9.39935610241996
                ],
                "label": "O",
                "properties": {}
            },
            {
                "species": [
                    {
                        "element": "O",
                        "occu": 1
                    }
                ],
                "abc": [
                    0.5,
                    0.5,
                    0.0
                ],
                "xyz": [
                    3.845650355,
                    2.592559345,
                    0.00054354
                ],
                "label": "O",
                "properties": {}
            },
            {
                "species": [
                    {
                        "element": "O",
                        "occu": 1
                    }
                ],
                "abc": [
                    0.5,
                    0.5,
                    0.5
                ],
                "xyz": [
                    1.5164877800000003,
                    2.592559345,
                    5.459058295
                ],
                "label": "O",
                "properties": {}
            },
            {
                "species": [
                    {
                        "element": "O",
                        "occu": 1
                    }
                ],
                "abc": [
                    0.5,
                    0.03743399,
                    0.25
                ],
                "xyz": [
                    2.6810690675,
                    0.19409968119027313,
                    2.7298009175
                ],
                "label": "O",
                "properties": {}
            },
            {
                "species": [
                    {
                        "element": "O",
                        "occu": 1
                    }
                ],
                "abc": [
                    0.5,
                    0.96256601,
                    0.75
                ],
                "xyz": [
                    0.3519064925000004,
                    4.991019008809727,
                    8.188315672500002
                ],
                "label": "O",
                "properties": {}
            },
            {
                "species": [
                    {
                        "element": "O",
                        "occu": 1
                    }
                ],
                "abc": [
                    0.73073518,
                    0.70092762,
                    0.40695001
                ],
                "xyz": [
                    3.7245985423802273,
                    3.634392902799218,
                    4.44347963586427
                ],
                "label": "O",
                "properties": {}
            },
            {
                "species": [
                    {
                        "element": "O",
                        "occu": 1
                    }
                ],
                "abc": [
                    0.86701288,
                    0.46482336,
                    0.13903214
                ],
                "xyz": [
                    6.020799865102823,
                    2.4101642914845987,
                    1.518760487580042
                ],
                "label": "O",
                "properties": {}
            },
            {
                "species": [
                    {
                        "element": "O",
                        "occu": 1
                    }
                ],
                "abc": [
                    0.73073518,
                    0.29907238,
                    0.90695001
                ],
                "xyz": [
                    1.3954359673802275,
                    1.5507257872007825,
                    9.901994390864271
                ],
                "label": "O",
                "properties": {}
            },
            {
                "species": [
                    {
                        "element": "O",
                        "occu": 1
                    }
                ],
                "abc": [
                    0.26926482,
                    0.29907238,
                    0.59304999
                ],
                "xyz": [
                    -0.6916229823802258,
                    1.5507257872007825,
                    6.474636954135731
                ],
                "label": "O",
                "properties": {}
            },
            {
                "species": [
                    {
                        "element": "O",
                        "occu": 1
                    }
                ],
                "abc": [
                    0.13298712,
                    0.46482336,
                    0.36096786
                ],
                "xyz": [
                    -0.6586617301028237,
                    2.4101642914845987,
                    3.9408413474199584
                ],
                "label": "O",
                "properties": {}
            },
            {
                "species": [
                    {
                        "element": "O",
                        "occu": 1
                    }
                ],
                "abc": [
                    0.86701288,
                    0.53517664,
                    0.63903214
                ],
                "xyz": [
                    3.691637290102824,
                    2.7749543985154017,
                    6.977275242580042
                ],
                "label": "O",
                "properties": {}
            }
        ]
    },
    "spacegroup": {
        "source": "spglib",
        "symbol": "P2/c",
        "number": 13,
        "point_group": "2/m",
        "crystal_system": "monoclinic",
        "hall": "-P 2yc"
    },
    "dielectric": {
        "epsilon_ionic": [
            [
                2.17141972,
                -2e-08,
                -0.01284671
            ],
            [
                -2e-08,
                1.98194647,
                1e-08
            ],
            [
                -0.01284671,
                1e-08,
                2.20358116
            ]
        ],
        "epsilon_ionic_avg": 2.118982450000001,
        "epsilon_ionic_eig": [
            2.1669182264761226,
            2.208082653523881,
            1.9819464699999993
        ],
        "epsilon_electronic": [
            [
                2.35148055,
                0.0,
                0.00665465
            ],
            [
                0.0,
                2.37354761,
                0.0
            ],
            [
                0.00665582,
                0.0,
                2.33950232
            ]
        ],
        "epsilon_electronic_avg": 2.354843493333333,
        "epsilon_electronic_eig": [
            2.3544447389178966,
            2.336538131082103,
            2.37354761
        ]
    },
    "phonon": {
        "lowest_freq": -0.12534171980133268,
        "frequency": [
            -0.12534171980133268,
            -0.10708235510559856,
            -0.08801593648828827,
            1.6956062188372667,
            1.8101119428535142,
            2.4634419525142226,
            2.610106648860053,
            2.6359353709084297,
            3.0806244103533618,
            3.1428344277254547,
            3.235996642720095,
            3.3983076482129944,
            3.7091333568342058,
            4.126219615924149,
            4.133993387155692,
            5.012823588407262,
            5.4213269399417605,
            5.7071240484154835,
            5.73285253446105,
            5.9836434098933555,
            6.035647242680175,
            6.210223012490463,
            7.424678596064473,
            7.446823924624069,
            7.820975335273989,
            8.088491005224238,
            8.350560772251411,
            8.361310146912652,
            8.3998342369648,
            8.476533021969077,
            8.501818497650143,
            8.956504627095335,
            9.130125306138549,
            9.284430424692314,
            9.694323060747989,
            10.062409935213548,
            10.133071764438608,
            10.221248405472874,
            10.658454277391483,
            10.854573839798059,
            11.070711458578577,
            11.193038599415758,
            11.301701684331853,
            11.621903062817065,
            11.744726009558583,
            11.87412955649063,
            11.885343255690797,
            12.271539157396134,
            12.839934296544039,
            13.285853258974576,
            13.419683540847215,
            13.503950825935918,
            13.532010488927138,
            13.77854028804758,
            14.068049293619426,
            14.999071118707132,
            15.044298798000135,
            15.581915788293024,
            15.598873921773777,
            16.82703487260881,
            17.428350813444276,
            17.434188438522774,
            18.44632733479607,
            18.74328226338778,
            18.848323151314244,
            19.9329695052134,
            20.595293127269905,
            21.323538251561207,
            21.810902064201933,
            22.05594432062424,
            22.217966191707426,
            22.638786991324118,
            22.69726182692747,
            22.787844090471925,
            23.012693467766873,
            23.086938049769344,
            29.648523074756326,
            29.827824222441876,
            30.34804711395285,
            30.65349763446818,
            31.120834706198593,
            31.516835044034394,
            31.679168914689786,
            31.713878387807654,
            31.780974741306522,
            31.835614775731077,
            32.24189153160504,
            32.495011911973215,
            33.28088647490951,
            34.17817398512068,
            34.18299998254374,
            34.262652277520104,
            34.612984800180584,
            35.20532584868878,
            35.51972158676511,
            35.72619712238795
        ]
    },
    "born_effective_charge": {
        "avg_abs_trace": 2.1121439583333332,
        "tensors": [
            [
                [
                    0.9286,
                    -0.0,
                    -0.01922
                ],
                [
                    0.0,
                    1.15985,
                    0.0
                ],
                [
                    -0.0252,
                    0.0,
                    0.98747
                ]
            ],
            [
                [
                    0.9286,
                    0.0,
                    -0.01922
                ],
                [
                    0.0,
                    1.15985,
                    0.0
                ],
                [
                    -0.0252,
                    -0.0,
                    0.98747
                ]
            ],
            [
                [
                    2.66365,
                    -1e-05,
                    -0.00878
                ],
                [
                    0.0,
                    2.58605,
                    0.0
                ],
                [
                    -0.02186,
                    -1e-05,
                    2.70402
                ]
            ],
            [
                [
                    2.66365,
                    1e-05,
                    -0.00878
                ],
                [
                    0.0,
                    2.58606,
                    0.0
                ],
                [
                    -0.02186,
                    1e-05,
                    2.70402
                ]
            ],
            [
                [
                    3.27763,
                    0.01991,
                    -0.00169
                ],
                [
                    0.09811,
                    3.37557,
                    0.12606
                ],
                [
                    0.17535,
                    -0.23252,
                    3.23268
                ]
            ],
            [
                [
                    3.27762,
                    0.01991,
                    -0.00177
                ],
                [
                    0.09818,
                    3.37549,
                    0.12603
                ],
                [
                    0.17538,
                    -0.23251,
                    3.23268
                ]
            ],
            [
                [
                    3.27763,
                    -0.01991,
                    -0.00169
                ],
                [
                    -0.09818,
                    3.37549,
                    -0.12603
                ],
                [
                    0.17535,
                    0.23252,
                    3.23268
                ]
            ],
            [
                [
                    3.27762,
                    -0.01991,
                    -0.00177
                ],
                [
                    -0.09811,
                    3.37557,
                    -0.12606
                ],
                [
                    0.17538,
                    0.23251,
                    3.23268
                ]
            ],
            [
                [
                    3.37804,
                    0.0468,
                    0.09667
                ],
                [
                    -0.14034,
                    3.38314,
                    0.07781
                ],
                [
                    -0.07508,
                    -0.18102,
                    3.1838
                ]
            ],
            [
                [
                    3.37804,
                    -0.0468,
                    0.09667
                ],
                [
                    0.14038,
                    3.38334,
                    -0.07781
                ],
                [
                    -0.07508,
                    0.18102,
                    3.1838
                ]
            ],
            [
                [
                    3.378,
                    0.04678,
                    0.09671
                ],
                [
                    -0.14038,
                    3.38334,
                    0.07781
                ],
                [
                    -0.07509,
                    -0.18104,
                    3.18381
                ]
            ],
            [
                [
                    3.378,
                    -0.04678,
                    0.09671
                ],
                [
                    0.14034,
                    3.38314,
                    -0.07781
                ],
                [
                    -0.07509,
                    0.18104,
                    3.18381
                ]
            ],
            [
                [
                    -1.15202,
                    -0.37302,
                    0.18131
                ],
                [
                    -0.33372,
                    -2.31724,
                    0.76558
                ],
                [
                    0.17885,
                    0.7578,
                    -1.59289
                ]
            ],
            [
                [
                    -2.26616,
                    -0.33068,
                    0.50621
                ],
                [
                    -0.27177,
                    -1.42934,
                    0.09806
                ],
                [
                    0.46134,
                    0.1451,
                    -1.30214
                ]
            ],
            [
                [
                    -2.26634,
                    0.3306,
                    0.50629
                ],
                [
                    0.27177,
                    -1.42934,
                    -0.09806
                ],
                [
                    0.46126,
                    -0.14513,
                    -1.30209
                ]
            ],
            [
                [
                    -2.26634,
                    -0.3306,
                    0.50629
                ],
                [
                    -0.27146,
                    -1.42939,
                    0.09804
                ],
                [
                    0.46126,
                    0.14513,
                    -1.30209
                ]
            ],
            [
                [
                    -2.26616,
                    0.33068,
                    0.50621
                ],
                [
                    0.27146,
                    -1.42939,
                    -0.09804
                ],
                [
                    0.46134,
                    -0.1451,
                    -1.30214
                ]
            ],
            [
                [
                    -1.15202,
                    0.37302,
                    0.18131
                ],
                [
                    0.33367,
                    -2.31728,
                    -0.765
                ],
                [
                    0.17885,
                    -0.7578,
                    -1.59289
                ]
            ],
            [
                [
                    -1.15202,
                    -0.37298,
                    0.18139
                ],
                [
                    -0.33367,
                    -2.31728,
                    0.765
                ],
                [
                    0.17886,
                    0.75781,
                    -1.5929
                ]
            ],
            [
                [
                    -1.15202,
                    0.37298,
                    0.18139
                ],
                [
                    0.33372,
                    -2.31724,
                    -0.76558
                ],
                [
                    0.17886,
                    -0.75781,
                    -1.5929
                ]
            ],
            [
                [
                    -1.1719,
                    0.31343,
                    0.23026
                ],
                [
                    0.34726,
                    -2.38893,
                    -0.81329
                ],
                [
                    0.22648,
                    -0.82137,
                    -1.55687
                ]
            ],
            [
                [
                    -1.2837,
                    0.15017,
                    -0.49271
                ],
                [
                    0.13801,
                    -1.44705,
                    0.29291
                ],
                [
                    -0.44113,
                    0.38439,
                    -2.27827
                ]
            ],
            [
                [
                    -3.13364,
                    -0.06233,
                    -0.05236
                ],
                [
                    0.05645,
                    -1.03944,
                    -0.01191
                ],
                [
                    0.07704,
                    0.04567,
                    -1.01461
                ]
            ],
            [
                [
                    -3.13364,
                    0.06233,
                    -0.05236
                ],
                [
                    -0.05645,
                    -1.03944,
                    0.01191
                ],
                [
                    0.07704,
                    -0.04567,
                    -1.01461
                ]
            ],
            [
                [
                    -2.0222,
                    -8e-05,
                    -0.96011
                ],
                [
                    0.0,
                    -1.05857,
                    0.0
                ],
                [
                    -1.08152,
                    6e-05,
                    -2.04958
                ]
            ],
            [
                [
                    -2.0222,
                    8e-05,
                    -0.96011
                ],
                [
                    0.0,
                    -1.05892,
                    0.0
                ],
                [
                    -1.08152,
                    -6e-05,
                    -2.04958
                ]
            ],
            [
                [
                    -1.17196,
                    -0.31337,
                    0.23036
                ],
                [
                    -0.34726,
                    -2.38893,
                    0.81329
                ],
                [
                    0.22644,
                    0.82138,
                    -1.55688
                ]
            ],
            [
                [
                    -1.28362,
                    0.15026,
                    -0.49253
                ],
                [
                    0.13797,
                    -1.44708,
                    0.29255
                ],
                [
                    -0.44112,
                    0.38439,
                    -2.27823
                ]
            ],
            [
                [
                    -1.17196,
                    0.31337,
                    0.23036
                ],
                [
                    0.34716,
                    -2.38895,
                    -0.81295
                ],
                [
                    0.22644,
                    -0.82138,
                    -1.55688
                ]
            ],
            [
                [
                    -1.1719,
                    -0.31343,
                    0.23026
                ],
                [
                    -0.34716,
                    -2.38895,
                    0.81295
                ],
                [
                    0.22648,
                    0.82137,
                    -1.55687
                ]
            ],
            [
                [
                    -1.2837,
                    -0.15017,
                    -0.49271
                ],
                [
                    -0.13797,
                    -1.44708,
                    -0.29255
                ],
                [
                    -0.44113,
                    -0.38439,
                    -2.27827
                ]
            ],
            [
                [
                    -1.28362,
                    -0.15026,
                    -0.49253
                ],
                [
                    -0.13801,
                    -1.44705,
                    -0.29291
                ],
                [
                    -0.44112,
                    -0.38439,
                    -2.27823
                ]
            ]
        ]
    },
    "band_gap": 5.3356,
    "is_direct": false,
    "formula": "LiAl(Si2O5)2"
}