{
    "mp_id": "mp-6493",
    "nelements": 4,
    "nsites": 28,
    "elements": [
        "Ca",
        "Mg",
        "O",
        "Si"
    ],
    "structure": {
        "@module": "pymatgen.core.structure",
        "@class": "Structure",
        "charge": null,
        "lattice": {
            "matrix": [
                [
                    11.0646726,
                    0.0,
                    0.0
                ],
                [
                    0.0,
                    6.34703096,
                    0.0
                ],
                [
                    0.0,
                    0.0,
                    4.82094361
                ]
            ],
            "a": 11.0646726,
            "b": 6.34703096,
            "c": 4.82094361,
            "alpha": 90.0,
            "beta": 90.0,
            "gamma": 90.0,
            "volume": 338.56435792532477
        },
        "sites": [
            {
                "species": [
                    {
                        "element": "Ca",
                        "occu": 1
                    }
                ],
                "abc": [
                    0.27619586,
                    0.75,
                    0.01990479
                ],
                "xyz": [
                    3.056016764375436,
                    4.76027322,
                    0.09595987015889189
                ],
                "label": "Ca",
                "properties": {}
            },
            {
                "species": [
                    {
                        "element": "Ca",
                        "occu": 1
                    }
                ],
                "abc": [
                    0.72380414,
                    0.25,
                    0.98009521
                ],
                "xyz": [
                    8.008655835624564,
                    1.58675774,
                    4.724983739841107
                ],
                "label": "Ca",
                "properties": {}
            },
            {
                "species": [
                    {
                        "element": "Ca",
                        "occu": 1
                    }
                ],
                "abc": [
                    0.77619586,
                    0.75,
                    0.48009521
                ],
                "xyz": [
                    8.588353064375436,
                    4.76027322,
                    2.314511934841108
                ],
                "label": "Ca",
                "properties": {}
            },
            {
                "species": [
                    {
                        "element": "Ca",
                        "occu": 1
                    }
                ],
                "abc": [
                    0.22380414,
                    0.25,
                    0.51990479
                ],
                "xyz": [
                    2.476319535624564,
                    1.58675774,
                    2.5064316751588915
                ],
                "label": "Ca",
                "properties": {}
            },
            {
                "species": [
                    {
                        "element": "Mg",
                        "occu": 1
                    }
                ],
                "abc": [
                    0.0,
                    0.0,
                    0.0
                ],
                "xyz": [
                    0.0,
                    0.0,
                    0.0
                ],
                "label": "Mg",
                "properties": {}
            },
            {
                "species": [
                    {
                        "element": "Mg",
                        "occu": 1
                    }
                ],
                "abc": [
                    0.0,
                    0.5,
                    0.0
                ],
                "xyz": [
                    0.0,
                    3.17351548,
                    0.0
                ],
                "label": "Mg",
                "properties": {}
            },
            {
                "species": [
                    {
                        "element": "Mg",
                        "occu": 1
                    }
                ],
                "abc": [
                    0.5,
                    0.0,
                    0.5
                ],
                "xyz": [
                    5.5323363,
                    0.0,
                    2.410471805
                ],
                "label": "Mg",
                "properties": {}
            },
            {
                "species": [
                    {
                        "element": "Mg",
                        "occu": 1
                    }
                ],
                "abc": [
                    0.5,
                    0.5,
                    0.5
                ],
                "xyz": [
                    5.5323363,
                    3.17351548,
                    2.410471805
                ],
                "label": "Mg",
                "properties": {}
            },
            {
                "species": [
                    {
                        "element": "Si",
                        "occu": 1
                    }
                ],
                "abc": [
                    0.41907188,
                    0.25,
                    0.08703674
                ],
                "xyz": [
                    4.636893148066488,
                    1.58675774,
                    0.4195992155382314
                ],
                "label": "Si",
                "properties": {}
            },
            {
                "species": [
                    {
                        "element": "Si",
                        "occu": 1
                    }
                ],
                "abc": [
                    0.91907188,
                    0.25,
                    0.41296326
                ],
                "xyz": [
                    10.169229448066487,
                    1.58675774,
                    1.9908725894617685
                ],
                "label": "Si",
                "properties": {}
            },
            {
                "species": [
                    {
                        "element": "Si",
                        "occu": 1
                    }
                ],
                "abc": [
                    0.58092812,
                    0.75,
                    0.91296326
                ],
                "xyz": [
                    6.427779451933512,
                    4.76027322,
                    4.401344394461768
                ],
                "label": "Si",
                "properties": {}
            },
            {
                "species": [
                    {
                        "element": "Si",
                        "occu": 1
                    }
                ],
                "abc": [
                    0.08092812,
                    0.75,
                    0.58703674
                ],
                "xyz": [
                    0.8954431519335121,
                    4.76027322,
                    2.830071020538231
                ],
                "label": "Si",
                "properties": {}
            },
            {
                "species": [
                    {
                        "element": "O",
                        "occu": 1
                    }
                ],
                "abc": [
                    0.35219894,
                    0.4568829,
                    0.22719381
                ],
                "xyz": [
                    3.896965961167044,
                    2.899849911394584,
                    1.095288546551054
                ],
                "label": "O",
                "properties": {}
            },
            {
                "species": [
                    {
                        "element": "O",
                        "occu": 1
                    }
                ],
                "abc": [
                    0.14780106,
                    0.5431171,
                    0.72719381
                ],
                "xyz": [
                    1.6353703388329561,
                    3.4471810486054157,
                    3.505760351551054
                ],
                "label": "O",
                "properties": {}
            },
            {
                "species": [
                    {
                        "element": "O",
                        "occu": 1
                    }
                ],
                "abc": [
                    0.64780106,
                    0.9568829,
                    0.77280619
                ],
                "xyz": [
                    7.167706638832956,
                    6.073365391394583,
                    3.7256550634489454
                ],
                "label": "O",
                "properties": {}
            },
            {
                "species": [
                    {
                        "element": "O",
                        "occu": 1
                    }
                ],
                "abc": [
                    0.85219894,
                    0.0431171,
                    0.27280619
                ],
                "xyz": [
                    9.429302261167043,
                    0.27366556860541597,
                    1.3151832584489458
                ],
                "label": "O",
                "properties": {}
            },
            {
                "species": [
                    {
                        "element": "O",
                        "occu": 1
                    }
                ],
                "abc": [
                    0.64780106,
                    0.5431171,
                    0.77280619
                ],
                "xyz": [
                    7.167706638832956,
                    3.4471810486054157,
                    3.7256550634489454
                ],
                "label": "O",
                "properties": {}
            },
            {
                "species": [
                    {
                        "element": "O",
                        "occu": 1
                    }
                ],
                "abc": [
                    0.85219894,
                    0.4568829,
                    0.27280619
                ],
                "xyz": [
                    9.429302261167043,
                    2.899849911394584,
                    1.3151832584489458
                ],
                "label": "O",
                "properties": {}
            },
            {
                "species": [
                    {
                        "element": "O",
                        "occu": 1
                    }
                ],
                "abc": [
                    0.35219894,
                    0.0431171,
                    0.22719381
                ],
                "xyz": [
                    3.896965961167044,
                    0.27366556860541597,
                    1.095288546551054
                ],
                "label": "O",
                "properties": {}
            },
            {
                "species": [
                    {
                        "element": "O",
                        "occu": 1
                    }
                ],
                "abc": [
                    0.14780106,
                    0.9568829,
                    0.72719381
                ],
                "xyz": [
                    1.6353703388329561,
                    6.073365391394583,
                    3.505760351551054
                ],
                "label": "O",
                "properties": {}
            },
            {
                "species": [
                    {
                        "element": "O",
                        "occu": 1
                    }
                ],
                "abc": [
                    0.94733849,
                    0.75,
                    0.74689056
                ],
                "xyz": [
                    10.481990233228375,
                    4.76027322,
                    3.600717272601321
                ],
                "label": "O",
                "properties": {}
            },
            {
                "species": [
                    {
                        "element": "O",
                        "occu": 1
                    }
                ],
                "abc": [
                    0.55266151,
                    0.25,
                    0.24689056
                ],
                "xyz": [
                    6.1150186667716255,
                    1.58675774,
                    1.1902454676013214
                ],
                "label": "O",
                "properties": {}
            },
            {
                "species": [
                    {
                        "element": "O",
                        "occu": 1
                    }
                ],
                "abc": [
                    0.05266151,
                    0.25,
                    0.25310944
                ],
                "xyz": [
                    0.582682366771626,
                    1.58675774,
                    1.2202263373986784
                ],
                "label": "O",
                "properties": {}
            },
            {
                "species": [
                    {
                        "element": "O",
                        "occu": 1
                    }
                ],
                "abc": [
                    0.44733849,
                    0.75,
                    0.75310944
                ],
                "xyz": [
                    4.949653933228373,
                    4.76027322,
                    3.6306981423986784
                ],
                "label": "O",
                "properties": {}
            },
            {
                "species": [
                    {
                        "element": "O",
                        "occu": 1
                    }
                ],
                "abc": [
                    0.07748124,
                    0.75,
                    0.24915004
                ],
                "xyz": [
                    0.857304553242024,
                    4.76027322,
                    1.2011382932692443
                ],
                "label": "O",
                "properties": {}
            },
            {
                "species": [
                    {
                        "element": "O",
                        "occu": 1
                    }
                ],
                "abc": [
                    0.42251876,
                    0.25,
                    0.74915004
                ],
                "xyz": [
                    4.675031746757976,
                    1.58675774,
                    3.611610098269244
                ],
                "label": "O",
                "properties": {}
            },
            {
                "species": [
                    {
                        "element": "O",
                        "occu": 1
                    }
                ],
                "abc": [
                    0.92251876,
                    0.25,
                    0.75084996
                ],
                "xyz": [
                    10.207368046757976,
                    1.58675774,
                    3.6198053167307553
                ],
                "label": "O",
                "properties": {}
            },
            {
                "species": [
                    {
                        "element": "O",
                        "occu": 1
                    }
                ],
                "abc": [
                    0.57748124,
                    0.75,
                    0.25084996
                ],
                "xyz": [
                    6.389640853242024,
                    4.76027322,
                    1.2093335117307553
                ],
                "label": "O",
                "properties": {}
            }
        ]
    },
    "spacegroup": {
        "source": "spglib",
        "symbol": "Pnma",
        "number": 62,
        "point_group": "mmm",
        "crystal_system": "orthorhombic",
        "hall": "-P 2ac 2n"
    },
    "dielectric": {
        "epsilon_ionic": [
            [
                5.09873405,
                1e-08,
                0.0
            ],
            [
                1e-08,
                4.58760039,
                -1e-08
            ],
            [
                0.0,
                -1e-08,
                4.23081465
            ]
        ],
        "epsilon_ionic_avg": 4.639049696666667,
        "epsilon_ionic_eig": [
            5.098734050000002,
            4.58760039,
            4.23081465
        ],
        "epsilon_electronic": [
            [
                2.93339407,
                0.0,
                0.0
            ],
            [
                0.0,
                2.92908762,
                0.0
            ],
            [
                0.0,
                0.0,
                2.91277084
            ]
        ],
        "epsilon_electronic_avg": 2.9250841766666666,
        "epsilon_electronic_eig": [
            2.93339407,
            2.92908762,
            2.91277084
        ]
    },
    "phonon": {
        "lowest_freq": -0.0549014149408814,
        "frequency": [
            -0.0549014149408814,
            -0.047556776184653225,
            -0.038848353814738064,
            2.848526055555601,
            3.5587540062253344,
            4.153563335328006,
            4.377391950179519,
            4.781846227847842,
            4.8605010978470595,
            5.060980666053005,
            5.758207761217977,
            5.829367065432584,
            5.953830192656005,
            5.970183461422211,
            6.088034668528542,
            6.238840905716688,
            6.291542047538692,
            6.299565915924262,
            6.943583484494486,
            7.017580396951106,
            7.089323283269059,
            7.565396815392411,
            7.589875753544474,
            7.6285764836535,
            8.045633605488483,
            8.080298755638019,
            8.141235310265316,
            8.143104307933005,
            8.164005062563028,
            8.689153121262835,
            8.805607806001253,
            8.920061025735823,
            8.930261869932316,
            8.94973400382306,
            9.298090814605656,
            9.33852619626255,
            9.516195054476775,
            9.77718400739964,
            9.813334881974884,
            9.892313648620396,
            10.656915254012503,
            10.689471392903789,
            10.709770422380357,
            10.856507521528453,
            11.631607940610332,
            11.64074638363158,
            11.773185212248654,
            11.840733639468754,
            11.958022647455227,
            12.044526695904938,
            12.80384164568836,
            12.870336971870495,
            13.177941665455965,
            13.295981189208062,
            14.012530223459594,
            14.146622679517153,
            14.579196391014772,
            14.721296478296498,
            14.882586187282655,
            15.114849368209972,
            15.155393772872982,
            16.003748873729847,
            16.45657510667262,
            16.6511521522586,
            16.921213900814763,
            16.9544335746808,
            17.1582533194107,
            17.344374636355326,
            23.84109831650187,
            23.99337163188918,
            23.997936070831955,
            24.098244630139174,
            24.820984083517207,
            24.96424348586332,
            25.581251528412125,
            25.651820399029333,
            25.853715961537386,
            26.018576659195393,
            26.258321048497102,
            27.799317976398953,
            27.89284695978386,
            28.058709267823918,
            28.25339008670334,
            28.27917453588888
        ]
    },
    "born_effective_charge": {
        "avg_abs_trace": 2.05231,
        "tensors": [
            [
                [
                    2.70798,
                    0.0,
                    0.08582
                ],
                [
                    5e-05,
                    2.39026,
                    -0.00012
                ],
                [
                    0.06189,
                    0.0,
                    2.09696
                ]
            ],
            [
                [
                    2.70776,
                    0.0,
                    0.08599
                ],
                [
                    -5e-05,
                    2.39026,
                    0.00012
                ],
                [
                    0.06179,
                    0.0,
                    2.09702
                ]
            ],
            [
                [
                    2.70798,
                    0.0,
                    -0.08582
                ],
                [
                    5e-05,
                    2.39026,
                    0.00012
                ],
                [
                    -0.06179,
                    0.0,
                    2.09702
                ]
            ],
            [
                [
                    2.70776,
                    0.0,
                    -0.08599
                ],
                [
                    -5e-05,
                    2.39026,
                    -0.00012
                ],
                [
                    -0.06189,
                    0.0,
                    2.09696
                ]
            ],
            [
                [
                    1.71287,
                    -0.30347,
                    -0.10635
                ],
                [
                    -0.26654,
                    2.05248,
                    0.13529
                ],
                [
                    -0.03375,
                    0.03138,
                    2.24809
                ]
            ],
            [
                [
                    1.71287,
                    0.30347,
                    -0.10635
                ],
                [
                    0.26654,
                    2.05248,
                    -0.13529
                ],
                [
                    -0.03375,
                    -0.03138,
                    2.24809
                ]
            ],
            [
                [
                    1.71287,
                    -0.30347,
                    0.10635
                ],
                [
                    -0.26654,
                    2.05248,
                    -0.13529
                ],
                [
                    0.03375,
                    -0.03138,
                    2.24809
                ]
            ],
            [
                [
                    1.71287,
                    0.30347,
                    0.10635
                ],
                [
                    0.26654,
                    2.05248,
                    0.13529
                ],
                [
                    0.03375,
                    0.03138,
                    2.24809
                ]
            ],
            [
                [
                    2.57371,
                    0.0,
                    -0.03587
                ],
                [
                    -2e-05,
                    2.82351,
                    -3e-05
                ],
                [
                    -0.04353,
                    0.0,
                    2.94348
                ]
            ],
            [
                [
                    2.57371,
                    0.0,
                    0.03587
                ],
                [
                    -2e-05,
                    2.82351,
                    3e-05
                ],
                [
                    0.04359,
                    0.0,
                    2.94345
                ]
            ],
            [
                [
                    2.57372,
                    0.0,
                    -0.03587
                ],
                [
                    2e-05,
                    2.82351,
                    3e-05
                ],
                [
                    -0.04359,
                    0.0,
                    2.94345
                ]
            ],
            [
                [
                    2.57372,
                    0.0,
                    0.03587
                ],
                [
                    2e-05,
                    2.82351,
                    -3e-05
                ],
                [
                    0.04353,
                    0.0,
                    2.94348
                ]
            ],
            [
                [
                    -1.69941,
                    0.26942,
                    0.12796
                ],
                [
                    0.27189,
                    -2.12039,
                    0.00919
                ],
                [
                    0.10266,
                    0.02021,
                    -1.61638
                ]
            ],
            [
                [
                    -1.69944,
                    0.26951,
                    -0.12794
                ],
                [
                    0.2717,
                    -2.12024,
                    -0.00915
                ],
                [
                    -0.10266,
                    -0.02021,
                    -1.61638
                ]
            ],
            [
                [
                    -1.69944,
                    -0.26951,
                    0.12794
                ],
                [
                    -0.27189,
                    -2.12039,
                    -0.00919
                ],
                [
                    0.10265,
                    -0.0202,
                    -1.61645
                ]
            ],
            [
                [
                    -1.69941,
                    -0.26942,
                    -0.12796
                ],
                [
                    -0.2717,
                    -2.12024,
                    0.00915
                ],
                [
                    -0.10265,
                    0.0202,
                    -1.61645
                ]
            ],
            [
                [
                    -1.69944,
                    0.26951,
                    0.12794
                ],
                [
                    0.2717,
                    -2.12024,
                    0.00915
                ],
                [
                    0.10265,
                    0.0202,
                    -1.61645
                ]
            ],
            [
                [
                    -1.69941,
                    0.26942,
                    -0.12796
                ],
                [
                    0.27189,
                    -2.12039,
                    -0.00919
                ],
                [
                    -0.10265,
                    -0.0202,
                    -1.61645
                ]
            ],
            [
                [
                    -1.69941,
                    -0.26942,
                    0.12796
                ],
                [
                    -0.2717,
                    -2.12024,
                    -0.00915
                ],
                [
                    0.10266,
                    -0.02021,
                    -1.61638
                ]
            ],
            [
                [
                    -1.69944,
                    -0.26951,
                    -0.12794
                ],
                [
                    -0.27189,
                    -2.12039,
                    0.00919
                ],
                [
                    -0.10266,
                    0.02021,
                    -1.61638
                ]
            ],
            [
                [
                    -2.15,
                    0.0,
                    0.06886
                ],
                [
                    -0.00026,
                    -1.53648,
                    1e-05
                ],
                [
                    0.04175,
                    0.0,
                    -1.67602
                ]
            ],
            [
                [
                    -2.14987,
                    0.0,
                    -0.06879
                ],
                [
                    0.00026,
                    -1.53648,
                    1e-05
                ],
                [
                    -0.04175,
                    0.0,
                    -1.67602
                ]
            ],
            [
                [
                    -2.14987,
                    0.0,
                    0.06879
                ],
                [
                    0.00026,
                    -1.53648,
                    -1e-05
                ],
                [
                    0.04152,
                    0.0,
                    -1.67607
                ]
            ],
            [
                [
                    -2.15,
                    0.0,
                    -0.06886
                ],
                [
                    -0.00026,
                    -1.53648,
                    -1e-05
                ],
                [
                    -0.04152,
                    0.0,
                    -1.67607
                ]
            ],
            [
                [
                    -1.44569,
                    0.0,
                    0.02773
                ],
                [
                    3e-05,
                    -1.48915,
                    -0.0
                ],
                [
                    0.01204,
                    0.0,
                    -2.37968
                ]
            ],
            [
                [
                    -1.44566,
                    0.0,
                    -0.0277
                ],
                [
                    -3e-05,
                    -1.48915,
                    -0.0
                ],
                [
                    -0.01204,
                    0.0,
                    -2.37968
                ]
            ],
            [
                [
                    -1.44566,
                    0.0,
                    0.0277
                ],
                [
                    -3e-05,
                    -1.48915,
                    0.0
                ],
                [
                    0.01208,
                    0.0,
                    -2.37965
                ]
            ],
            [
                [
                    -1.44569,
                    0.0,
                    -0.02773
                ],
                [
                    3e-05,
                    -1.48915,
                    0.0
                ],
                [
                    -0.01208,
                    0.0,
                    -2.37965
                ]
            ]
        ]
    },
    "band_gap": 4.682,
    "is_direct": true,
    "formula": "CaMgSiO4"
}