{
    "mp_id": "mp-697670",
    "nelements": 4,
    "nsites": 26,
    "elements": [
        "Al",
        "K",
        "O",
        "Si"
    ],
    "structure": {
        "@module": "pymatgen.core.structure",
        "@class": "Structure",
        "charge": null,
        "lattice": {
            "matrix": [
                [
                    7.27633021,
                    0.00032473,
                    0.00573394
                ],
                [
                    -1.80446492,
                    7.45223968,
                    -0.00286956
                ],
                [
                    -1.96850504,
                    -3.67158126,
                    6.80352747
                ]
            ],
            "a": 7.2763324764936455,
            "b": 7.667592720668704,
            "c": 7.977688078405497,
            "alpha": 112.92679301401624,
            "beta": 104.2468339841641,
            "gamma": 103.6089189224474,
            "volume": 368.97041322085374
        },
        "sites": [
            {
                "species": [
                    {
                        "element": "K",
                        "occu": 1
                    }
                ],
                "abc": [
                    0.86455905,
                    0.71004386,
                    0.72735129
                ],
                "xyz": [
                    3.5777732165970075,
                    2.621168410491846,
                    4.951474298115191
                ],
                "label": "K",
                "properties": {}
            },
            {
                "species": [
                    {
                        "element": "K",
                        "occu": 1
                    }
                ],
                "abc": [
                    0.13544095,
                    0.28995614,
                    0.27264871
                ],
                "xyz": [
                    -0.07441296659700769,
                    1.1598147395081537,
                    1.8549175518848082
                ],
                "label": "K",
                "properties": {}
            },
            {
                "species": [
                    {
                        "element": "Al",
                        "occu": 1
                    }
                ],
                "abc": [
                    0.78244145,
                    0.17661119,
                    0.80080515
                ],
                "xyz": [
                    3.798224689523794,
                    -1.623818181389411,
                    5.452279512063907
                ],
                "label": "Al",
                "properties": {}
            },
            {
                "species": [
                    {
                        "element": "Al",
                        "occu": 1
                    }
                ],
                "abc": [
                    0.21755855,
                    0.82338881,
                    0.19919485
                ],
                "xyz": [
                    -0.2948644395237936,
                    5.404801331389411,
                    1.3541123379360929
                ],
                "label": "Al",
                "properties": {}
            },
            {
                "species": [
                    {
                        "element": "Si",
                        "occu": 1
                    }
                ],
                "abc": [
                    0.76742322,
                    0.80899012,
                    0.16931534
                ],
                "xyz": [
                    3.7909323672355724,
                    5.407382448959664,
                    1.1540204797917293
                ],
                "label": "Si",
                "properties": {}
            },
            {
                "species": [
                    {
                        "element": "Si",
                        "occu": 1
                    }
                ],
                "abc": [
                    0.23257678,
                    0.19100988,
                    0.83068466
                ],
                "xyz": [
                    -0.28757211723557186,
                    -1.6263992989596634,
                    5.652371370208271
                ],
                "label": "Si",
                "properties": {}
            },
            {
                "species": [
                    {
                        "element": "Si",
                        "occu": 1
                    }
                ],
                "abc": [
                    0.65920357,
                    0.40821279,
                    0.16741179
                ],
                "xyz": [
                    3.7304262391101006,
                    2.4276476238297375,
                    1.1415991546913646
                ],
                "label": "Si",
                "properties": {}
            },
            {
                "species": [
                    {
                        "element": "Si",
                        "occu": 1
                    }
                ],
                "abc": [
                    0.34079643,
                    0.59178721,
                    0.83258821
                ],
                "xyz": [
                    -0.22706598911010167,
                    1.353335526170262,
                    5.664792695308635
                ],
                "label": "Si",
                "properties": {}
            },
            {
                "species": [
                    {
                        "element": "Si",
                        "occu": 1
                    }
                ],
                "abc": [
                    0.64851804,
                    0.1792758,
                    0.40801559
                ],
                "xyz": [
                    3.5921537687634784,
                    -0.16184557034497016,
                    2.779149395618887
                ],
                "label": "Si",
                "properties": {}
            },
            {
                "species": [
                    {
                        "element": "Si",
                        "occu": 1
                    }
                ],
                "abc": [
                    0.35148196,
                    0.8207242,
                    0.59198441
                ],
                "xyz": [
                    -0.08879351876347896,
                    3.9428287203449703,
                    4.027242454381113
                ],
                "label": "Si",
                "properties": {}
            },
            {
                "species": [
                    {
                        "element": "O",
                        "occu": 1
                    }
                ],
                "abc": [
                    0.01685665,
                    0.1440122,
                    0.8558796
                ],
                "xyz": [
                    -1.8220137175508115,
                    -2.069212595072245,
                    5.82268377298368
                ],
                "label": "O",
                "properties": {}
            },
            {
                "species": [
                    {
                        "element": "O",
                        "occu": 1
                    }
                ],
                "abc": [
                    0.98314335,
                    0.8559878,
                    0.1441204
                ],
                "xyz": [
                    5.325373967550812,
                    5.850195745072245,
                    0.983708077016319
                ],
                "label": "O",
                "properties": {}
            },
            {
                "species": [
                    {
                        "element": "O",
                        "occu": 1
                    }
                ],
                "abc": [
                    0.71465088,
                    0.369883,
                    0.35840754
                ],
                "xyz": [
                    3.8270678408787235,
                    1.440766430831002,
                    2.441471907650511
                ],
                "label": "O",
                "properties": {}
            },
            {
                "species": [
                    {
                        "element": "O",
                        "occu": 1
                    }
                ],
                "abc": [
                    0.28534912,
                    0.630117,
                    0.64159246
                ],
                "xyz": [
                    -0.32370759087872325,
                    2.3402167191689975,
                    4.364919942349489
                ],
                "label": "O",
                "properties": {}
            },
            {
                "species": [
                    {
                        "element": "O",
                        "occu": 1
                    }
                ],
                "abc": [
                    0.77879177,
                    0.32467428,
                    0.02978728
                ],
                "xyz": [
                    5.022246323856223,
                    2.3104370305085293,
                    0.20619245069133857
                ],
                "label": "O",
                "properties": {}
            },
            {
                "species": [
                    {
                        "element": "O",
                        "occu": 1
                    }
                ],
                "abc": [
                    0.22120823,
                    0.67532572,
                    0.97021272
                ],
                "xyz": [
                    -1.5188860738562227,
                    1.4705461194914702,
                    6.600199399308661
                ],
                "label": "O",
                "properties": {}
            },
            {
                "species": [
                    {
                        "element": "O",
                        "occu": 1
                    }
                ],
                "abc": [
                    0.75871634,
                    0.02472764,
                    0.30924332
                ],
                "xyz": [
                    4.8673034326219105,
                    -0.9508893005343398,
                    2.1082248990579413
                ],
                "label": "O",
                "properties": {}
            },
            {
                "species": [
                    {
                        "element": "O",
                        "occu": 1
                    }
                ],
                "abc": [
                    0.24128366,
                    0.97527236,
                    0.69075668
                ],
                "xyz": [
                    -1.3639431826219095,
                    4.73187245053434,
                    4.698166950942058
                ],
                "label": "O",
                "properties": {}
            },
            {
                "species": [
                    {
                        "element": "O",
                        "occu": 1
                    }
                ],
                "abc": [
                    0.74912371,
                    0.28501091,
                    0.64457264
                ],
                "xyz": [
                    3.6677348027018963,
                    -0.24238795005546976,
                    4.388845237149239
                ],
                "label": "O",
                "properties": {}
            },
            {
                "species": [
                    {
                        "element": "O",
                        "occu": 1
                    }
                ],
                "abc": [
                    0.25087629,
                    0.71498909,
                    0.35542736
                ],
                "xyz": [
                    -0.16437455270189638,
                    4.023371100055469,
                    2.4175466128507614
                ],
                "label": "O",
                "properties": {}
            },
            {
                "species": [
                    {
                        "element": "O",
                        "occu": 1
                    }
                ],
                "abc": [
                    0.72905425,
                    0.65682814,
                    0.26557655
                ],
                "xyz": [
                    3.5968273497242316,
                    3.9199915895597446,
                    1.809152898881655
                ],
                "label": "O",
                "properties": {}
            },
            {
                "species": [
                    {
                        "element": "O",
                        "occu": 1
                    }
                ],
                "abc": [
                    0.27094575,
                    0.34317186,
                    0.73442345
                ],
                "xyz": [
                    -0.09346709972423173,
                    -0.13900843955974418,
                    4.997238951118344
                ],
                "label": "O",
                "properties": {}
            },
            {
                "species": [
                    {
                        "element": "O",
                        "occu": 1
                    }
                ],
                "abc": [
                    0.5962102,
                    0.93078593,
                    0.68568815
                ],
                "xyz": [
                    1.3088711519122906,
                    4.419073686725879,
                    4.665845851819379
                ],
                "label": "O",
                "properties": {}
            },
            {
                "species": [
                    {
                        "element": "O",
                        "occu": 1
                    }
                ],
                "abc": [
                    0.4037898,
                    0.06921407,
                    0.31431185
                ],
                "xyz": [
                    2.1944890980877094,
                    -0.6380905367258793,
                    2.1405459981806225
                ],
                "label": "O",
                "properties": {}
            },
            {
                "species": [
                    {
                        "element": "O",
                        "occu": 1
                    }
                ],
                "abc": [
                    0.589408,
                    0.69846244,
                    0.94852449
                ],
                "xyz": [
                    1.1612010263696462,
                    1.7227161666824022,
                    6.454687773910933
                ],
                "label": "O",
                "properties": {}
            },
            {
                "species": [
                    {
                        "element": "O",
                        "occu": 1
                    }
                ],
                "abc": [
                    0.410592,
                    0.30153756,
                    0.05147551
                ],
                "xyz": [
                    2.342159223630355,
                    2.058266983317598,
                    0.3517040760890661
                ],
                "label": "O",
                "properties": {}
            }
        ]
    },
    "spacegroup": {
        "source": "spglib",
        "symbol": "P-1",
        "number": 2,
        "point_group": "-1",
        "crystal_system": "triclinic",
        "hall": "-P 1"
    },
    "dielectric": {
        "epsilon_ionic": [
            [
                3.52004266,
                0.09943378,
                0.05243914
            ],
            [
                0.09943378,
                3.00184914,
                -0.3256237
            ],
            [
                0.05243914,
                -0.3256237,
                2.47752096
            ]
        ],
        "epsilon_ionic_avg": 2.999804253333334,
        "epsilon_ionic_eig": [
            2.314855210060763,
            3.538537150624121,
            3.146020399315119
        ],
        "epsilon_electronic": [
            [
                2.40695368,
                -1.592e-05,
                0.00354899
            ],
            [
                -1.585e-05,
                2.42185029,
                -0.00464532
            ],
            [
                0.00354896,
                -0.00464502,
                2.39654539
            ]
        ],
        "epsilon_electronic_avg": 2.4084497866666674,
        "epsilon_electronic_eig": [
            2.39472186911455,
            2.4079249341498636,
            2.422702556735589
        ]
    },
    "phonon": {
        "lowest_freq": -0.12021530877902888,
        "frequency": [
            -0.12021530877902888,
            -0.06075543829839856,
            -0.05239371430376836,
            1.9300790442424458,
            2.246337637115773,
            2.3622058790093217,
            2.5843268924836726,
            2.6158213040501566,
            2.852576855665362,
            3.0442081704584742,
            3.1365602428186428,
            3.705974055449233,
            3.9690726385584862,
            4.032749511852645,
            4.156859640049412,
            4.269234687866954,
            4.5485019308458705,
            4.625171481590917,
            5.216978620651926,
            5.7445626612083815,
            6.424665677702221,
            6.69609421105445,
            6.999492684597657,
            7.412879934918664,
            7.614126740008517,
            7.959878411891125,
            8.163224196621021,
            8.51558294000729,
            8.596995297201595,
            9.351930529393545,
            9.419507613008959,
            9.818311972530031,
            10.101782222400164,
            10.38566783601002,
            10.541757736415967,
            10.933233754293287,
            11.442991825344645,
            11.517031789703319,
            11.776460202564408,
            11.77978275882329,
            11.90997989231033,
            12.72916030140575,
            12.922255021441961,
            13.201185572541448,
            13.542759031915303,
            13.750666186709504,
            14.635792664714335,
            15.477901146776935,
            16.319655250045624,
            16.998903189035154,
            17.66817204225058,
            18.348289347148388,
            18.83957068637683,
            18.91806597009152,
            20.921019196443815,
            21.087358728667198,
            21.263759029127513,
            21.82179576592647,
            22.315835725053763,
            22.394401723209757,
            22.71908380073979,
            23.69031816154548,
            29.235973662719346,
            29.379292268340485,
            29.71227750532488,
            29.937587280882692,
            30.43967578963099,
            30.576001802569994,
            30.675813733074975,
            31.052564198533553,
            31.15618596456253,
            32.23321391017231,
            32.26772304845604,
            32.660838509525576,
            33.05648274101252,
            33.266202066937765,
            33.425978422005535,
            33.60689905543006
        ]
    },
    "born_effective_charge": {
        "avg_abs_trace": 2.029415512820513,
        "tensors": [
            [
                [
                    1.19816,
                    -0.03184,
                    -0.01947
                ],
                [
                    -0.03104,
                    1.2615,
                    0.00114
                ],
                [
                    -0.01634,
                    0.0211,
                    1.21861
                ]
            ],
            [
                [
                    1.19817,
                    -0.03183,
                    -0.01946
                ],
                [
                    -0.03104,
                    1.26151,
                    0.00114
                ],
                [
                    -0.01635,
                    0.0211,
                    1.21862
                ]
            ],
            [
                [
                    2.89416,
                    0.11708,
                    -0.02653
                ],
                [
                    0.11919,
                    2.27249,
                    0.07202
                ],
                [
                    0.01497,
                    -0.15326,
                    2.74415
                ]
            ],
            [
                [
                    2.89418,
                    0.11707,
                    -0.02653
                ],
                [
                    0.11921,
                    2.27246,
                    0.07202
                ],
                [
                    0.01495,
                    -0.15322,
                    2.74412
                ]
            ],
            [
                [
                    3.37218,
                    -0.18255,
                    0.07883
                ],
                [
                    -0.04086,
                    3.22768,
                    0.15511
                ],
                [
                    0.077,
                    0.41373,
                    2.81525
                ]
            ],
            [
                [
                    3.37213,
                    -0.18257,
                    0.07881
                ],
                [
                    -0.04077,
                    3.22776,
                    0.15511
                ],
                [
                    0.07698,
                    0.41377,
                    2.81524
                ]
            ],
            [
                [
                    2.90526,
                    0.05676,
                    0.00271
                ],
                [
                    -0.09306,
                    3.36748,
                    -0.22284
                ],
                [
                    0.10509,
                    -0.10619,
                    3.04011
                ]
            ],
            [
                [
                    2.90524,
                    0.05678,
                    0.00267
                ],
                [
                    -0.0932,
                    3.3675,
                    -0.22275
                ],
                [
                    0.1051,
                    -0.10616,
                    3.04021
                ]
            ],
            [
                [
                    2.85099,
                    -0.01106,
                    -0.002
                ],
                [
                    0.00778,
                    3.2341,
                    -0.04224
                ],
                [
                    -0.16622,
                    -0.23027,
                    3.17143
                ]
            ],
            [
                [
                    2.85096,
                    -0.01105,
                    -0.00206
                ],
                [
                    0.00768,
                    3.23406,
                    -0.04224
                ],
                [
                    -0.16627,
                    -0.23029,
                    3.17151
                ]
            ],
            [
                [
                    -2.59564,
                    -0.08015,
                    -0.06083
                ],
                [
                    -0.1233,
                    -1.25278,
                    0.02059
                ],
                [
                    -0.11887,
                    0.00944,
                    -1.17083
                ]
            ],
            [
                [
                    -2.59563,
                    -0.08013,
                    -0.06076
                ],
                [
                    -0.12344,
                    -1.2526,
                    0.02056
                ],
                [
                    -0.11889,
                    0.0095,
                    -1.17077
                ]
            ],
            [
                [
                    -1.00141,
                    -0.06515,
                    -0.00379
                ],
                [
                    -0.09766,
                    -2.36619,
                    0.7249
                ],
                [
                    0.0368,
                    0.68711,
                    -1.71436
                ]
            ],
            [
                [
                    -1.00131,
                    -0.06517,
                    -0.00377
                ],
                [
                    -0.09766,
                    -2.36637,
                    0.7247
                ],
                [
                    0.03684,
                    0.68687,
                    -1.71453
                ]
            ],
            [
                [
                    -1.84959,
                    0.11669,
                    0.62667
                ],
                [
                    0.1221,
                    -1.16775,
                    -0.11867
                ],
                [
                    0.56029,
                    -0.12138,
                    -1.89646
                ]
            ],
            [
                [
                    -1.84957,
                    0.11672,
                    0.62672
                ],
                [
                    0.12273,
                    -1.16766,
                    -0.11886
                ],
                [
                    0.56049,
                    -0.12134,
                    -1.89645
                ]
            ],
            [
                [
                    -1.87704,
                    0.64606,
                    0.58553
                ],
                [
                    0.66845,
                    -1.71566,
                    -0.61805
                ],
                [
                    0.59601,
                    -0.58451,
                    -1.51937
                ]
            ],
            [
                [
                    -1.87705,
                    0.64599,
                    0.58552
                ],
                [
                    0.66842,
                    -1.71565,
                    -0.61807
                ],
                [
                    0.59602,
                    -0.58448,
                    -1.51947
                ]
            ],
            [
                [
                    -1.10916,
                    -0.02314,
                    -0.06135
                ],
                [
                    -0.01121,
                    -1.49517,
                    0.3156
                ],
                [
                    -0.07805,
                    0.39789,
                    -2.23212
                ]
            ],
            [
                [
                    -1.10916,
                    -0.023,
                    -0.06128
                ],
                [
                    -0.0113,
                    -1.49522,
                    0.31527
                ],
                [
                    -0.078,
                    0.39786,
                    -2.23216
                ]
            ],
            [
                [
                    -1.05777,
                    0.02456,
                    0.00138
                ],
                [
                    0.00362,
                    -2.60603,
                    -0.01058
                ],
                [
                    0.00801,
                    -0.08232,
                    -1.19242
                ]
            ],
            [
                [
                    -1.05773,
                    0.0246,
                    0.00147
                ],
                [
                    0.00364,
                    -2.60593,
                    -0.01059
                ],
                [
                    0.00791,
                    -0.08207,
                    -1.19238
                ]
            ],
            [
                [
                    -1.85573,
                    -0.42469,
                    -0.40453
                ],
                [
                    -0.40894,
                    -1.61462,
                    -0.26242
                ],
                [
                    -0.2938,
                    -0.15891,
                    -1.35765
                ]
            ],
            [
                [
                    -1.85571,
                    -0.42458,
                    -0.40464
                ],
                [
                    -0.40914,
                    -1.61456,
                    -0.26242
                ],
                [
                    -0.29402,
                    -0.15894,
                    -1.35775
                ]
            ],
            [
                [
                    -1.87446,
                    -0.14267,
                    -0.71666
                ],
                [
                    -0.11507,
                    -1.14515,
                    -0.01421
                ],
                [
                    -0.72478,
                    -0.0925,
                    -1.9062
                ]
            ],
            [
                [
                    -1.87445,
                    -0.14271,
                    -0.71666
                ],
                [
                    -0.11511,
                    -1.1452,
                    -0.01422
                ],
                [
                    -0.72488,
                    -0.09252,
                    -1.90632
                ]
            ]
        ]
    },
    "band_gap": 4.9253,
    "is_direct": false,
    "formula": "KAlSi3O8"
}