{
    "mp_id": "mp-684801",
    "nelements": 5,
    "nsites": 20,
    "elements": [
        "Ca",
        "La",
        "Mg",
        "O",
        "Ta"
    ],
    "structure": {
        "@module": "pymatgen.core.structure",
        "@class": "Structure",
        "charge": null,
        "lattice": {
            "matrix": [
                [
                    5.52025379,
                    0.0,
                    -0.00015292
                ],
                [
                    0.0,
                    5.64443434,
                    0.0
                ],
                [
                    -5.49976307,
                    0.0,
                    7.86898123
                ]
            ],
            "a": 5.5202537921180665,
            "b": 5.64443434,
            "c": 9.60043016870745,
            "alpha": 90.0,
            "beta": 124.95193276595924,
            "gamma": 90.0,
            "volume": 245.18255749233018
        },
        "sites": [
            {
                "species": [
                    {
                        "element": "Ca",
                        "occu": 1
                    }
                ],
                "abc": [
                    0.23618459,
                    0.20112412,
                    0.74838125
                ],
                "xyz": [
                    -2.812120682943342,
                    1.1352318895302809,
                    5.888961891786435
                ],
                "label": "Ca",
                "properties": {}
            },
            {
                "species": [
                    {
                        "element": "Ca",
                        "occu": 1
                    }
                ],
                "abc": [
                    0.23618459,
                    0.79887588,
                    0.24838125
                ],
                "xyz": [
                    -0.06223914794334129,
                    4.5092024504697195,
                    1.9544712767864347
                ],
                "label": "Ca",
                "properties": {}
            },
            {
                "species": [
                    {
                        "element": "La",
                        "occu": 1
                    }
                ],
                "abc": [
                    0.76163032,
                    0.70714101,
                    0.7516236
                ],
                "xyz": [
                    0.07064094273846067,
                    3.9914110000662832,
                    5.914395531916493
                ],
                "label": "La",
                "properties": {}
            },
            {
                "species": [
                    {
                        "element": "La",
                        "occu": 1
                    }
                ],
                "abc": [
                    0.76163032,
                    0.29285899,
                    0.2516236
                ],
                "xyz": [
                    2.8205224777384608,
                    1.6530233399337166,
                    1.9799049169164937
                ],
                "label": "La",
                "properties": {}
            },
            {
                "species": [
                    {
                        "element": "Mg",
                        "occu": 1
                    }
                ],
                "abc": [
                    0.00021381,
                    0.7501792,
                    0.49949603
                ],
                "xyz": [
                    -2.7459295339427725,
                    4.234337237633729,
                    3.9305248518336917
                ],
                "label": "Mg",
                "properties": {}
            },
            {
                "species": [
                    {
                        "element": "Mg",
                        "occu": 1
                    }
                ],
                "abc": [
                    0.00021381,
                    0.2498208,
                    0.99949603
                ],
                "xyz": [
                    -5.495811068942772,
                    1.410097102366272,
                    7.865015466833691
                ],
                "label": "Mg",
                "properties": {}
            },
            {
                "species": [
                    {
                        "element": "Ta",
                        "occu": 1
                    }
                ],
                "abc": [
                    0.50150539,
                    0.24746116,
                    0.50131548
                ],
                "xyz": [
                    0.011320666529604395,
                    1.3967782693202344,
                    3.944765412224202
                ],
                "label": "Ta",
                "properties": {}
            },
            {
                "species": [
                    {
                        "element": "Ta",
                        "occu": 1
                    }
                ],
                "abc": [
                    0.50150539,
                    0.75253884,
                    0.00131548
                ],
                "xyz": [
                    2.7612022015296045,
                    4.247656070679766,
                    0.010274797224201599
                ],
                "label": "Ta",
                "properties": {}
            },
            {
                "species": [
                    {
                        "element": "O",
                        "occu": 1
                    }
                ],
                "abc": [
                    0.34404311,
                    0.21815429,
                    0.25546431
                ],
                "xyz": [
                    0.4942121040598553,
                    1.2313575658943186,
                    2.01019124925252
                ],
                "label": "O",
                "properties": {}
            },
            {
                "species": [
                    {
                        "element": "O",
                        "occu": 1
                    }
                ],
                "abc": [
                    0.75117264,
                    0.96142968,
                    0.5496302
                ],
                "xyz": [
                    1.1238277367875913,
                    5.426726701287211,
                    4.324914857921036
                ],
                "label": "O",
                "properties": {}
            },
            {
                "species": [
                    {
                        "element": "O",
                        "occu": 1
                    }
                ],
                "abc": [
                    0.1667793,
                    0.95434135,
                    0.95427106
                ],
                "xyz": [
                    -4.327600671639207,
                    5.386717088021959,
                    7.509115555581648
                ],
                "label": "O",
                "properties": {}
            },
            {
                "species": [
                    {
                        "element": "O",
                        "occu": 1
                    }
                ],
                "abc": [
                    0.83816943,
                    0.44718514,
                    0.54720746
                ],
                "xyz": [
                    1.617396592483138,
                    2.5241071605537075,
                    4.30583705878674
                ],
                "label": "O",
                "properties": {}
            },
            {
                "species": [
                    {
                        "element": "O",
                        "occu": 1
                    }
                ],
                "abc": [
                    0.25159399,
                    0.46312173,
                    0.9481455
                ],
                "xyz": [
                    -3.825712929047963,
                    2.614060196412208,
                    7.460900669056015
                ],
                "label": "O",
                "properties": {}
            },
            {
                "species": [
                    {
                        "element": "O",
                        "occu": 1
                    }
                ],
                "abc": [
                    0.64870943,
                    0.72283594,
                    0.2444641
                ],
                "xyz": [
                    2.236546060445453,
                    4.08000000192218,
                    1.9235842136628074
                ],
                "label": "O",
                "properties": {}
            },
            {
                "species": [
                    {
                        "element": "O",
                        "occu": 1
                    }
                ],
                "abc": [
                    0.34404311,
                    0.78184571,
                    0.75546431
                ],
                "xyz": [
                    -2.255669430940145,
                    4.413076774105682,
                    5.94468186425252
                ],
                "label": "O",
                "properties": {}
            },
            {
                "species": [
                    {
                        "element": "O",
                        "occu": 1
                    }
                ],
                "abc": [
                    0.75117264,
                    0.03857032,
                    0.0496302
                ],
                "xyz": [
                    3.8737092717875914,
                    0.21770763871278878,
                    0.3904242429210372
                ],
                "label": "O",
                "properties": {}
            },
            {
                "species": [
                    {
                        "element": "O",
                        "occu": 1
                    }
                ],
                "abc": [
                    0.1667793,
                    0.04565865,
                    0.45427106
                ],
                "xyz": [
                    -1.5777191366392074,
                    0.257717251978041,
                    3.574624940581648
                ],
                "label": "O",
                "properties": {}
            },
            {
                "species": [
                    {
                        "element": "O",
                        "occu": 1
                    }
                ],
                "abc": [
                    0.83816943,
                    0.55281486,
                    0.04720746
                ],
                "xyz": [
                    4.367278127483138,
                    3.1203271794462926,
                    0.3713464437867402
                ],
                "label": "O",
                "properties": {}
            },
            {
                "species": [
                    {
                        "element": "O",
                        "occu": 1
                    }
                ],
                "abc": [
                    0.25159399,
                    0.53687827,
                    0.4481455
                ],
                "xyz": [
                    -1.0758313940479631,
                    3.030374143587792,
                    3.526410054056014
                ],
                "label": "O",
                "properties": {}
            },
            {
                "species": [
                    {
                        "element": "O",
                        "occu": 1
                    }
                ],
                "abc": [
                    0.64870943,
                    0.27716406,
                    0.7444641
                ],
                "xyz": [
                    -0.5133354745545469,
                    1.5644343380778203,
                    5.858074828662807
                ],
                "label": "O",
                "properties": {}
            }
        ]
    },
    "spacegroup": {
        "source": "spglib",
        "symbol": "Pc",
        "number": 7,
        "point_group": "m",
        "crystal_system": "monoclinic",
        "hall": "P -2yc"
    },
    "dielectric": {
        "epsilon_ionic": [
            [
                16.9583844,
                -2.84e-06,
                0.33270614
            ],
            [
                -2.84e-06,
                16.04394941,
                -8.1e-06
            ],
            [
                0.33270614,
                -8.1e-06,
                19.60347925
            ]
        ],
        "epsilon_ionic_avg": 17.53527102,
        "epsilon_ionic_eig": [
            19.64468585964889,
            16.917177790374446,
            16.04394940997666
        ],
        "epsilon_electronic": [
            [
                4.45180044,
                0.0,
                0.05006662
            ],
            [
                0.0,
                4.39675072,
                0.0
            ],
            [
                0.05000388,
                0.0,
                4.35844241
            ]
        ],
        "epsilon_electronic_avg": 4.402331190000001,
        "epsilon_electronic_eig": [
            4.473549896412533,
            4.336692953587468,
            4.39675072
        ]
    },
    "phonon": {
        "lowest_freq": -0.07799237475828981,
        "frequency": [
            -0.07799237475828981,
            -0.05878834694988072,
            -0.05386328666609506,
            2.5613025760393944,
            2.7378302032904336,
            3.3641337953762225,
            3.8245219429772583,
            3.9332660777320543,
            4.24373286234956,
            4.327961914645813,
            4.613349343337299,
            4.67649748550423,
            4.693833910819795,
            4.7946439139029,
            5.016514468911432,
            5.2505549234088775,
            5.479997769786949,
            5.739039184222488,
            5.950611863832172,
            6.595118245128186,
            6.932262239389848,
            7.421878454441491,
            7.685466049956462,
            7.929009869129173,
            7.998677854586257,
            8.057186956289843,
            8.159018321819334,
            8.440517721591682,
            8.804172586150244,
            9.054047118668802,
            9.415349872725029,
            9.550259372797228,
            9.728240792558305,
            9.862405476402348,
            9.91025246581057,
            10.47558851136551,
            10.62604014815724,
            10.720834878179984,
            10.811048910931095,
            11.31009468653918,
            11.528125899560512,
            12.234030658324984,
            12.807587629708186,
            12.835672553969545,
            12.92797026634218,
            13.071988199450214,
            13.762260908595543,
            14.735233697524752,
            16.466947416360767,
            16.737115410519884,
            16.769241584397907,
            16.839904540495034,
            17.014719244803064,
            17.392356641539813,
            17.51299219502009,
            17.803872234741522,
            18.130957739387153,
            19.888285461218878,
            22.05818515643645,
            22.34167561093182
        ]
    },
    "born_effective_charge": {
        "avg_abs_trace": 2.969873666666667,
        "tensors": [
            [
                [
                    2.53742,
                    -0.13492,
                    0.11552
                ],
                [
                    -0.04452,
                    2.46932,
                    -0.05313
                ],
                [
                    -0.07663,
                    -0.16454,
                    2.37324
                ]
            ],
            [
                [
                    2.53742,
                    0.13492,
                    0.11552
                ],
                [
                    0.04451,
                    2.46932,
                    0.05312
                ],
                [
                    -0.07663,
                    0.16454,
                    2.37324
                ]
            ],
            [
                [
                    4.39899,
                    0.26012,
                    0.24921
                ],
                [
                    0.26408,
                    4.18627,
                    -0.02033
                ],
                [
                    -0.17486,
                    0.29184,
                    4.07363
                ]
            ],
            [
                [
                    4.39899,
                    -0.26012,
                    0.24921
                ],
                [
                    -0.26407,
                    4.18628,
                    0.02033
                ],
                [
                    -0.17486,
                    -0.29184,
                    4.07363
                ]
            ],
            [
                [
                    2.39689,
                    0.14507,
                    -0.1898
                ],
                [
                    -0.07541,
                    2.46548,
                    0.04769
                ],
                [
                    0.13808,
                    0.07999,
                    2.41958
                ]
            ],
            [
                [
                    2.39689,
                    -0.14507,
                    -0.1898
                ],
                [
                    0.0754,
                    2.46548,
                    -0.0477
                ],
                [
                    0.13808,
                    -0.07999,
                    2.41958
                ]
            ],
            [
                [
                    5.81861,
                    -0.03026,
                    -0.11916
                ],
                [
                    -0.4079,
                    5.65957,
                    0.226
                ],
                [
                    0.41548,
                    -0.01497,
                    5.7491
                ]
            ],
            [
                [
                    5.81861,
                    0.03026,
                    -0.11916
                ],
                [
                    0.40789,
                    5.65957,
                    -0.22601
                ],
                [
                    0.41548,
                    0.01497,
                    5.7491
                ]
            ],
            [
                [
                    -2.71038,
                    -0.19771,
                    0.58729
                ],
                [
                    -0.1768,
                    -1.72319,
                    -0.16548
                ],
                [
                    0.56115,
                    -0.15944,
                    -3.13361
                ]
            ],
            [
                [
                    -2.2385,
                    0.50393,
                    -0.08994
                ],
                [
                    0.57236,
                    -3.26676,
                    0.74289
                ],
                [
                    -0.14098,
                    0.71479,
                    -2.1134
                ]
            ],
            [
                [
                    -3.02491,
                    0.46111,
                    -0.49313
                ],
                [
                    0.48572,
                    -2.3449,
                    0.01549
                ],
                [
                    -0.57566,
                    -0.10214,
                    -2.09018
                ]
            ],
            [
                [
                    -2.89096,
                    -0.52306,
                    -0.00275
                ],
                [
                    -0.50163,
                    -2.30393,
                    -0.39619
                ],
                [
                    -0.05093,
                    -0.29005,
                    -2.06648
                ]
            ],
            [
                [
                    -2.34716,
                    -0.54378,
                    -0.47951
                ],
                [
                    -0.53641,
                    -2.89955,
                    -0.19036
                ],
                [
                    -0.53066,
                    -0.15407,
                    -2.06798
                ]
            ],
            [
                [
                    -1.94,
                    0.15574,
                    0.42228
                ],
                [
                    0.15743,
                    -2.2423,
                    0.25892
                ],
                [
                    0.43502,
                    0.30339,
                    -3.1439
                ]
            ],
            [
                [
                    -2.71038,
                    0.19771,
                    0.58729
                ],
                [
                    0.17681,
                    -1.7232,
                    0.16547
                ],
                [
                    0.56115,
                    0.15944,
                    -3.13361
                ]
            ],
            [
                [
                    -2.2385,
                    -0.50393,
                    -0.08994
                ],
                [
                    -0.57236,
                    -3.26675,
                    -0.7429
                ],
                [
                    -0.14098,
                    -0.71479,
                    -2.1134
                ]
            ],
            [
                [
                    -3.02491,
                    -0.46111,
                    -0.49313
                ],
                [
                    -0.48572,
                    -2.34491,
                    -0.01548
                ],
                [
                    -0.57566,
                    0.10214,
                    -2.09018
                ]
            ],
            [
                [
                    -2.89096,
                    0.52306,
                    -0.00275
                ],
                [
                    0.50162,
                    -2.30394,
                    0.39619
                ],
                [
                    -0.05093,
                    0.29005,
                    -2.06648
                ]
            ],
            [
                [
                    -2.34716,
                    0.54378,
                    -0.47951
                ],
                [
                    0.53641,
                    -2.89956,
                    0.19038
                ],
                [
                    -0.53066,
                    0.15407,
                    -2.06798
                ]
            ],
            [
                [
                    -1.94,
                    -0.15574,
                    0.42228
                ],
                [
                    -0.15742,
                    -2.2423,
                    -0.25892
                ],
                [
                    0.43502,
                    -0.30339,
                    -3.1439
                ]
            ]
        ]
    },
    "band_gap": 4.405,
    "is_direct": false,
    "formula": "CaLaMgTaO6"
}