{
    "mp_id": "mp-6526",
    "nelements": 4,
    "nsites": 16,
    "elements": [
        "Ge",
        "Na",
        "O",
        "Sb"
    ],
    "structure": {
        "@module": "pymatgen.core.structure",
        "@class": "Structure",
        "charge": null,
        "lattice": {
            "matrix": [
                [
                    3.36956197,
                    -4.48268575,
                    0.0001817
                ],
                [
                    3.36956197,
                    4.48268575,
                    0.0001817
                ],
                [
                    -3.03860652,
                    0.0,
                    6.60943967
                ]
            ],
            "a": 5.607889035629916,
            "b": 5.607889035629916,
            "c": 7.274463714581043,
            "alpha": 104.53405612278512,
            "beta": 104.53405612278512,
            "gamma": 106.1368215867238,
            "volume": 199.67199047578055
        },
        "sites": [
            {
                "species": [
                    {
                        "element": "Na",
                        "occu": 1
                    }
                ],
                "abc": [
                    0.3340014,
                    0.6659986,
                    0.75
                ],
                "xyz": [
                    1.0906070800000003,
                    1.4882391174799,
                    4.9572614525
                ],
                "label": "Na",
                "properties": {}
            },
            {
                "species": [
                    {
                        "element": "Na",
                        "occu": 1
                    }
                ],
                "abc": [
                    0.6659986,
                    0.3340014,
                    0.25
                ],
                "xyz": [
                    2.6099103400000003,
                    -1.4882391174799,
                    1.6525416175
                ],
                "label": "Na",
                "properties": {}
            },
            {
                "species": [
                    {
                        "element": "Ge",
                        "occu": 1
                    }
                ],
                "abc": [
                    0.31237788,
                    0.68762212,
                    0.25
                ],
                "xyz": [
                    2.60991034,
                    1.6821020074175799,
                    1.6525416175
                ],
                "label": "Ge",
                "properties": {}
            },
            {
                "species": [
                    {
                        "element": "Ge",
                        "occu": 1
                    }
                ],
                "abc": [
                    0.68762212,
                    0.31237788,
                    0.75
                ],
                "xyz": [
                    1.0906070799999998,
                    -1.6821020074175799,
                    4.9572614525
                ],
                "label": "Ge",
                "properties": {}
            },
            {
                "species": [
                    {
                        "element": "Sb",
                        "occu": 1
                    }
                ],
                "abc": [
                    0.0,
                    0.0,
                    0.5
                ],
                "xyz": [
                    -1.51930326,
                    0.0,
                    3.304719835
                ],
                "label": "Sb",
                "properties": {}
            },
            {
                "species": [
                    {
                        "element": "Sb",
                        "occu": 1
                    }
                ],
                "abc": [
                    0.0,
                    0.0,
                    0.0
                ],
                "xyz": [
                    0.0,
                    0.0,
                    0.0
                ],
                "label": "Sb",
                "properties": {}
            },
            {
                "species": [
                    {
                        "element": "O",
                        "occu": 1
                    }
                ],
                "abc": [
                    0.08179695,
                    0.91820305,
                    0.75
                ],
                "xyz": [
                    1.0906070800000003,
                    3.7493457056830746,
                    4.9572614525
                ],
                "label": "O",
                "properties": {}
            },
            {
                "species": [
                    {
                        "element": "O",
                        "occu": 1
                    }
                ],
                "abc": [
                    0.91820305,
                    0.08179695,
                    0.25
                ],
                "xyz": [
                    2.6099103400000003,
                    -3.7493457056830746,
                    1.6525416175
                ],
                "label": "O",
                "properties": {}
            },
            {
                "species": [
                    {
                        "element": "O",
                        "occu": 1
                    }
                ],
                "abc": [
                    0.08455738,
                    0.68299885,
                    0.38315894
                ],
                "xyz": [
                    1.4220590291642843,
                    2.6826250497780526,
                    2.532605362918141
                ],
                "label": "O",
                "properties": {}
            },
            {
                "species": [
                    {
                        "element": "O",
                        "occu": 1
                    }
                ],
                "abc": [
                    0.31700115,
                    0.91544262,
                    0.11684106
                ],
                "xyz": [
                    3.797761650835715,
                    2.6826250497780526,
                    0.7724778720818593
                ],
                "label": "O",
                "properties": {}
            },
            {
                "species": [
                    {
                        "element": "O",
                        "occu": 1
                    }
                ],
                "abc": [
                    0.91544262,
                    0.31700115,
                    0.61684106
                ],
                "xyz": [
                    2.278458390835715,
                    -2.6826250497780526,
                    4.077197707081861
                ],
                "label": "O",
                "properties": {}
            },
            {
                "species": [
                    {
                        "element": "O",
                        "occu": 1
                    }
                ],
                "abc": [
                    0.68299885,
                    0.08455738,
                    0.88315894
                ],
                "xyz": [
                    -0.09724423083571576,
                    -2.6826250497780526,
                    5.83732519791814
                ],
                "label": "O",
                "properties": {}
            },
            {
                "species": [
                    {
                        "element": "O",
                        "occu": 1
                    }
                ],
                "abc": [
                    0.37180176,
                    0.24616685,
                    0.57299629
                ],
                "xyz": [
                    0.34117326417995075,
                    -0.5631818207595325,
                    3.7872966947852613
                ],
                "label": "O",
                "properties": {}
            },
            {
                "species": [
                    {
                        "element": "O",
                        "occu": 1
                    }
                ],
                "abc": [
                    0.75383315,
                    0.62819824,
                    0.92700371
                ],
                "xyz": [
                    1.840040895820049,
                    -0.563181820759532,
                    6.127226210214739
                ],
                "label": "O",
                "properties": {}
            },
            {
                "species": [
                    {
                        "element": "O",
                        "occu": 1
                    }
                ],
                "abc": [
                    0.62819824,
                    0.75383315,
                    0.42700371
                ],
                "xyz": [
                    3.3593441558200494,
                    0.563181820759532,
                    2.822506375214739
                ],
                "label": "O",
                "properties": {}
            },
            {
                "species": [
                    {
                        "element": "O",
                        "occu": 1
                    }
                ],
                "abc": [
                    0.24616685,
                    0.37180176,
                    0.07299629
                ],
                "xyz": [
                    1.8604765241799506,
                    0.5631818207595325,
                    0.4825768597852614
                ],
                "label": "O",
                "properties": {}
            }
        ]
    },
    "spacegroup": {
        "source": "spglib",
        "symbol": "C2/c",
        "number": 15,
        "point_group": "2/m",
        "crystal_system": "monoclinic",
        "hall": "-C 2yc"
    },
    "dielectric": {
        "epsilon_ionic": [
            [
                5.82532394,
                0.0,
                -1.33573916
            ],
            [
                0.0,
                4.98539384,
                -0.0
            ],
            [
                -1.33573916,
                -0.0,
                10.13407204
            ]
        ],
        "epsilon_ionic_avg": 6.981596606666667,
        "epsilon_ionic_eig": [
            5.444835735187935,
            10.514560244812065,
            4.98539384
        ],
        "epsilon_electronic": [
            [
                3.45568711,
                0.0,
                0.04217912
            ],
            [
                0.0,
                3.60121206,
                0.0
            ],
            [
                0.04218166,
                0.0,
                3.74380201
            ]
        ],
        "epsilon_electronic_avg": 3.600233726666667,
        "epsilon_electronic_eig": [
            3.4496388166074112,
            3.7498503033925887,
            3.60121206
        ]
    },
    "phonon": {
        "lowest_freq": -0.04553841917634616,
        "frequency": [
            -0.04553841917634616,
            -0.015587390324131027,
            -0.014872276257040629,
            2.115754300777505,
            2.2385235497885208,
            2.317986205726389,
            3.7541792120412913,
            4.074024799541592,
            4.116760097861828,
            4.124509786766323,
            5.311761899386492,
            5.544127819904463,
            5.912976253620829,
            6.335898745524628,
            6.397790262374635,
            6.41277575458293,
            6.534831313780682,
            6.718101107609182,
            6.898542089491221,
            7.187526674442895,
            7.733577788523707,
            7.973264310981972,
            8.266481176713667,
            8.572024419678492,
            8.608691588988547,
            8.74164610976554,
            9.582846902136193,
            10.07419364699135,
            12.555550808562506,
            12.622860280004822,
            12.804252069961576,
            13.038749213305158,
            13.238840053540962,
            14.04348667496793,
            14.620507120207233,
            15.047154307911985,
            15.057199632731527,
            15.308189691372773,
            20.126436370488587,
            21.332633090137044,
            21.569655870471586,
            21.770314212409083,
            22.233434610549914,
            22.254918885845633,
            23.628561972321886,
            25.075304616812137,
            25.156614693838193,
            25.66937103554367
        ]
    },
    "born_effective_charge": {
        "avg_abs_trace": 2.339865,
        "tensors": [
            [
                [
                    1.20801,
                    -0.0,
                    -0.00997
                ],
                [
                    0.0,
                    1.15808,
                    0.0
                ],
                [
                    -0.02328,
                    1e-05,
                    1.03854
                ]
            ],
            [
                [
                    1.20801,
                    0.0,
                    -0.00997
                ],
                [
                    0.0,
                    1.15808,
                    0.0
                ],
                [
                    -0.02328,
                    -1e-05,
                    1.03854
                ]
            ],
            [
                [
                    3.15541,
                    3e-05,
                    0.98961
                ],
                [
                    0.0,
                    3.67459,
                    0.0
                ],
                [
                    -0.22965,
                    -6e-05,
                    3.30599
                ]
            ],
            [
                [
                    3.15541,
                    -3e-05,
                    0.98961
                ],
                [
                    0.0,
                    3.67478,
                    0.0
                ],
                [
                    -0.22965,
                    6e-05,
                    3.30599
                ]
            ],
            [
                [
                    4.59687,
                    -0.67138,
                    -0.66637
                ],
                [
                    -0.98918,
                    4.66595,
                    0.46269
                ],
                [
                    0.46294,
                    -0.16192,
                    5.27485
                ]
            ],
            [
                [
                    4.59687,
                    0.67138,
                    -0.66637
                ],
                [
                    0.98918,
                    4.66595,
                    -0.46269
                ],
                [
                    0.46294,
                    0.16192,
                    5.27485
                ]
            ],
            [
                [
                    -1.55561,
                    0.00017,
                    0.73684
                ],
                [
                    -0.0,
                    -1.44083,
                    0.0
                ],
                [
                    0.59537,
                    -0.00019,
                    -2.72993
                ]
            ],
            [
                [
                    -1.55561,
                    -0.00017,
                    0.73684
                ],
                [
                    0.0,
                    -1.44086,
                    0.0
                ],
                [
                    0.59537,
                    0.00019,
                    -2.72993
                ]
            ],
            [
                [
                    -1.45249,
                    0.26582,
                    0.18663
                ],
                [
                    0.33287,
                    -2.29348,
                    -0.65899
                ],
                [
                    0.26099,
                    -0.65932,
                    -1.71594
                ]
            ],
            [
                [
                    -1.45234,
                    -0.2658,
                    0.18667
                ],
                [
                    -0.33287,
                    -2.29348,
                    0.65899
                ],
                [
                    0.26091,
                    0.6595,
                    -1.71606
                ]
            ],
            [
                [
                    -1.45234,
                    0.2658,
                    0.18667
                ],
                [
                    0.33295,
                    -2.29354,
                    -0.65909
                ],
                [
                    0.26091,
                    -0.6595,
                    -1.71606
                ]
            ],
            [
                [
                    -1.45249,
                    -0.26582,
                    0.18663
                ],
                [
                    -0.33295,
                    -2.29354,
                    0.65909
                ],
                [
                    0.26099,
                    0.65932,
                    -1.71594
                ]
            ],
            [
                [
                    -2.24993,
                    0.7045,
                    -0.71173
                ],
                [
                    0.66858,
                    -1.73545,
                    0.43609
                ],
                [
                    -0.66369,
                    0.46776,
                    -1.72876
                ]
            ],
            [
                [
                    -2.24992,
                    -0.7043,
                    -0.71167
                ],
                [
                    -0.66858,
                    -1.73545,
                    -0.43609
                ],
                [
                    -0.66358,
                    -0.46781,
                    -1.72868
                ]
            ],
            [
                [
                    -2.24992,
                    0.7043,
                    -0.71167
                ],
                [
                    0.66842,
                    -1.7354,
                    0.43604
                ],
                [
                    -0.66358,
                    0.46781,
                    -1.72868
                ]
            ],
            [
                [
                    -2.24993,
                    -0.7045,
                    -0.71173
                ],
                [
                    -0.66842,
                    -1.7354,
                    -0.43604
                ],
                [
                    -0.66369,
                    -0.46776,
                    -1.72876
                ]
            ]
        ]
    },
    "band_gap": 2.1135,
    "is_direct": true,
    "formula": "NaGeSbO5"
}