{
    "mp_id": "mp-6507",
    "nelements": 4,
    "nsites": 26,
    "elements": [
        "Na",
        "O",
        "Si",
        "Zn"
    ],
    "structure": {
        "@module": "pymatgen.core.structure",
        "@class": "Structure",
        "charge": null,
        "lattice": {
            "matrix": [
                [
                    13.58482086,
                    0.0,
                    0.0
                ],
                [
                    0.0,
                    4.57279342,
                    2.52051673
                ],
                [
                    0.0,
                    -4.57279342,
                    2.52051673
                ]
            ],
            "a": 13.58482086,
            "b": 5.221440821095762,
            "c": 5.221440821095762,
            "alpha": 122.27302681533418,
            "beta": 90.0,
            "gamma": 90.0,
            "volume": 313.1519195140818
        },
        "sites": [
            {
                "species": [
                    {
                        "element": "Na",
                        "occu": 1
                    }
                ],
                "abc": [
                    0.25,
                    0.98324053,
                    0.05633353
                ],
                "xyz": [
                    3.396205215,
                    4.23855423055194,
                    2.620263810304024
                ],
                "label": "Na",
                "properties": {}
            },
            {
                "species": [
                    {
                        "element": "Na",
                        "occu": 1
                    }
                ],
                "abc": [
                    0.75,
                    0.05633353,
                    0.98324053
                ],
                "xyz": [
                    10.188615645,
                    -4.23855423055194,
                    2.620263810304024
                ],
                "label": "Na",
                "properties": {}
            },
            {
                "species": [
                    {
                        "element": "Na",
                        "occu": 1
                    }
                ],
                "abc": [
                    0.5,
                    0.00557914,
                    0.00557914
                ],
                "xyz": [
                    6.79241043,
                    0.0,
                    0.0281246314180244
                ],
                "label": "Na",
                "properties": {}
            },
            {
                "species": [
                    {
                        "element": "Na",
                        "occu": 1
                    }
                ],
                "abc": [
                    0.0,
                    0.00557914,
                    0.00557914
                ],
                "xyz": [
                    0.0,
                    0.0,
                    0.0281246314180244
                ],
                "label": "Na",
                "properties": {}
            },
            {
                "species": [
                    {
                        "element": "Zn",
                        "occu": 1
                    }
                ],
                "abc": [
                    0.4215948,
                    0.34247363,
                    0.77429065
                ],
                "xyz": [
                    5.727289833507528,
                    -1.9746100277000083,
                    2.8148230512064045
                ],
                "label": "Zn",
                "properties": {}
            },
            {
                "species": [
                    {
                        "element": "Zn",
                        "occu": 1
                    }
                ],
                "abc": [
                    0.5784052,
                    0.77429065,
                    0.34247363
                ],
                "xyz": [
                    7.857531026492472,
                    1.9746100277000083,
                    2.8148230512064045
                ],
                "label": "Zn",
                "properties": {}
            },
            {
                "species": [
                    {
                        "element": "Zn",
                        "occu": 1
                    }
                ],
                "abc": [
                    0.0784052,
                    0.34247363,
                    0.77429065
                ],
                "xyz": [
                    1.065120596492472,
                    -1.9746100277000083,
                    2.8148230512064045
                ],
                "label": "Zn",
                "properties": {}
            },
            {
                "species": [
                    {
                        "element": "Zn",
                        "occu": 1
                    }
                ],
                "abc": [
                    0.9215948,
                    0.77429065,
                    0.34247363
                ],
                "xyz": [
                    12.519700263507529,
                    1.9746100277000083,
                    2.8148230512064045
                ],
                "label": "Zn",
                "properties": {}
            },
            {
                "species": [
                    {
                        "element": "Si",
                        "occu": 1
                    }
                ],
                "abc": [
                    0.3602478,
                    0.66861389,
                    0.42956645
                ],
                "xyz": [
                    4.893901828209108,
                    1.0931145606998451,
                    2.7679819195270885
                ],
                "label": "Si",
                "properties": {}
            },
            {
                "species": [
                    {
                        "element": "Si",
                        "occu": 1
                    }
                ],
                "abc": [
                    0.6397522,
                    0.42956645,
                    0.66861389
                ],
                "xyz": [
                    8.690919031790893,
                    -1.0931145606998451,
                    2.7679819195270885
                ],
                "label": "Si",
                "properties": {}
            },
            {
                "species": [
                    {
                        "element": "Si",
                        "occu": 1
                    }
                ],
                "abc": [
                    0.1397522,
                    0.66861389,
                    0.42956645
                ],
                "xyz": [
                    1.898508601790892,
                    1.0931145606998451,
                    2.7679819195270885
                ],
                "label": "Si",
                "properties": {}
            },
            {
                "species": [
                    {
                        "element": "Si",
                        "occu": 1
                    }
                ],
                "abc": [
                    0.8602478,
                    0.42956645,
                    0.66861389
                ],
                "xyz": [
                    11.686312258209108,
                    -1.0931145606998451,
                    2.7679819195270885
                ],
                "label": "Si",
                "properties": {}
            },
            {
                "species": [
                    {
                        "element": "O",
                        "occu": 1
                    }
                ],
                "abc": [
                    0.3717355,
                    0.64472112,
                    0.72603222
                ],
                "xyz": [
                    5.04996017480253,
                    -0.37181886305296175,
                    3.4550067261733783
                ],
                "label": "O",
                "properties": {}
            },
            {
                "species": [
                    {
                        "element": "O",
                        "occu": 1
                    }
                ],
                "abc": [
                    0.6282645,
                    0.72603222,
                    0.64472112
                ],
                "xyz": [
                    8.53486068519747,
                    0.37181886305296175,
                    3.4550067261733783
                ],
                "label": "O",
                "properties": {}
            },
            {
                "species": [
                    {
                        "element": "O",
                        "occu": 1
                    }
                ],
                "abc": [
                    0.1282645,
                    0.64472112,
                    0.72603222
                ],
                "xyz": [
                    1.74245025519747,
                    -0.37181886305296175,
                    3.4550067261733783
                ],
                "label": "O",
                "properties": {}
            },
            {
                "species": [
                    {
                        "element": "O",
                        "occu": 1
                    }
                ],
                "abc": [
                    0.8717355,
                    0.72603222,
                    0.64472112
                ],
                "xyz": [
                    11.84237060480253,
                    0.37181886305296175,
                    3.4550067261733783
                ],
                "label": "O",
                "properties": {}
            },
            {
                "species": [
                    {
                        "element": "O",
                        "occu": 1
                    }
                ],
                "abc": [
                    0.43899828,
                    0.92219428,
                    0.45226706
                ],
                "xyz": [
                    5.963712991648121,
                    2.1488800994948924,
                    3.464352802208219
                ],
                "label": "O",
                "properties": {}
            },
            {
                "species": [
                    {
                        "element": "O",
                        "occu": 1
                    }
                ],
                "abc": [
                    0.56100172,
                    0.45226706,
                    0.92219428
                ],
                "xyz": [
                    7.6211078683518805,
                    -2.1488800994948924,
                    3.464352802208219
                ],
                "label": "O",
                "properties": {}
            },
            {
                "species": [
                    {
                        "element": "O",
                        "occu": 1
                    }
                ],
                "abc": [
                    0.06100172,
                    0.92219428,
                    0.45226706
                ],
                "xyz": [
                    0.8286974383518793,
                    2.1488800994948924,
                    3.464352802208219
                ],
                "label": "O",
                "properties": {}
            },
            {
                "species": [
                    {
                        "element": "O",
                        "occu": 1
                    }
                ],
                "abc": [
                    0.93899828,
                    0.45226706,
                    0.92219428
                ],
                "xyz": [
                    12.756123421648121,
                    -2.1488800994948924,
                    3.464352802208219
                ],
                "label": "O",
                "properties": {}
            },
            {
                "species": [
                    {
                        "element": "O",
                        "occu": 1
                    }
                ],
                "abc": [
                    0.37350318,
                    0.34234956,
                    0.11721469
                ],
                "xyz": [
                    5.073973790940335,
                    1.0294952521485554,
                    1.1583393806349025
                ],
                "label": "O",
                "properties": {}
            },
            {
                "species": [
                    {
                        "element": "O",
                        "occu": 1
                    }
                ],
                "abc": [
                    0.62649682,
                    0.11721469,
                    0.34234956
                ],
                "xyz": [
                    8.510847069059665,
                    -1.0294952521485554,
                    1.1583393806349025
                ],
                "label": "O",
                "properties": {}
            },
            {
                "species": [
                    {
                        "element": "O",
                        "occu": 1
                    }
                ],
                "abc": [
                    0.12649682,
                    0.34234956,
                    0.11721469
                ],
                "xyz": [
                    1.7184366390596655,
                    1.0294952521485554,
                    1.1583393806349025
                ],
                "label": "O",
                "properties": {}
            },
            {
                "species": [
                    {
                        "element": "O",
                        "occu": 1
                    }
                ],
                "abc": [
                    0.87350318,
                    0.11721469,
                    0.34234956
                ],
                "xyz": [
                    11.866384220940336,
                    -1.0294952521485554,
                    1.1583393806349025
                ],
                "label": "O",
                "properties": {}
            },
            {
                "species": [
                    {
                        "element": "O",
                        "occu": 1
                    }
                ],
                "abc": [
                    0.75,
                    0.44104938,
                    0.81656915
                ],
                "xyz": [
                    10.188615645,
                    -1.7171743333359135,
                    3.169848544823007
                ],
                "label": "O",
                "properties": {}
            },
            {
                "species": [
                    {
                        "element": "O",
                        "occu": 1
                    }
                ],
                "abc": [
                    0.25,
                    0.81656915,
                    0.44104938
                ],
                "xyz": [
                    3.396205215,
                    1.7171743333359135,
                    3.169848544823007
                ],
                "label": "O",
                "properties": {}
            }
        ]
    },
    "spacegroup": {
        "source": "spglib",
        "symbol": "Ama2",
        "number": 40,
        "point_group": "mm2",
        "crystal_system": "orthorhombic",
        "hall": "A 2 -2a"
    },
    "dielectric": {
        "epsilon_ionic": [
            [
                4.02995611,
                0.0,
                -3.19e-06
            ],
            [
                0.0,
                5.17556524,
                0.00010719
            ],
            [
                -3.19e-06,
                0.00010719,
                3.75143322
            ]
        ],
        "epsilon_ionic_avg": 4.318984856666667,
        "epsilon_ionic_eig": [
            4.029956110036537,
            3.7514332118956064,
            5.175565248067858
        ],
        "epsilon_electronic": [
            [
                2.7472564,
                0.0,
                0.0
            ],
            [
                0.0,
                2.78489465,
                0.0
            ],
            [
                0.0,
                0.0,
                2.80776351
            ]
        ],
        "epsilon_electronic_avg": 2.77997152,
        "epsilon_electronic_eig": [
            2.7472564,
            2.78489465,
            2.80776351
        ]
    },
    "phonon": {
        "lowest_freq": -0.15642901339606075,
        "frequency": [
            -0.15642901339606075,
            -0.12977901481140844,
            -0.10676255497910722,
            1.7928110896415619,
            1.9012702767650465,
            2.17387115735876,
            2.2711156896895104,
            2.4361110555881993,
            2.8971736369787404,
            3.5117612909983826,
            3.8437819053809124,
            3.9279241878600644,
            4.0740130055202615,
            4.150374284040044,
            4.158437500279048,
            4.308609591535112,
            4.57234211229603,
            4.793452837242176,
            4.840143887764189,
            5.39203054162224,
            5.556061828550203,
            5.604545177304267,
            5.696505499311631,
            5.931290560420191,
            6.002731429723684,
            6.003734396246059,
            6.019823382749009,
            6.418251650593708,
            6.671153005383526,
            6.775756998064495,
            6.94979060220651,
            7.328366318981778,
            7.83524007656805,
            8.064290010595135,
            8.403316925688005,
            8.798775621689252,
            9.005996762181878,
            9.09946607704249,
            9.155712419958881,
            9.190541514371983,
            10.13607839794236,
            10.300595496941256,
            10.32668072355031,
            10.462752297331987,
            10.886892632788944,
            11.321077047248338,
            12.040401572677744,
            12.44103977191543,
            13.03888760055115,
            13.451394708902836,
            13.99176649490293,
            14.537268512279475,
            14.596564607148716,
            14.709599875808765,
            15.36818146169112,
            15.38957029298835,
            16.007507876559533,
            16.262076349086993,
            16.31600186553761,
            16.316102000967756,
            16.697707608667205,
            16.981052965821192,
            20.310580072352472,
            20.326959000139674,
            24.5104304269844,
            25.521361445074195,
            26.17305304227749,
            26.526569097793534,
            26.943899258116833,
            27.262362955810904,
            27.728534178917105,
            27.995627083435917,
            28.200689884036176,
            28.41957361446337,
            28.533902296484744,
            28.54354287451424,
            28.586944340005616,
            30.073878261352302
        ]
    },
    "born_effective_charge": {
        "avg_abs_trace": 1.8322097435897435,
        "tensors": [
            [
                [
                    1.13717,
                    -0.0,
                    0.0
                ],
                [
                    -0.0,
                    1.09677,
                    0.02166
                ],
                [
                    0.0,
                    0.01698,
                    1.11267
                ]
            ],
            [
                [
                    1.13717,
                    0.0,
                    0.0
                ],
                [
                    -0.0,
                    1.09677,
                    -0.02159
                ],
                [
                    0.0,
                    -0.01698,
                    1.11267
                ]
            ],
            [
                [
                    0.91774,
                    0.02089,
                    0.0
                ],
                [
                    0.06459,
                    1.143,
                    3e-05
                ],
                [
                    0.0,
                    0.0,
                    1.09296
                ]
            ],
            [
                [
                    0.91774,
                    -0.02089,
                    0.0
                ],
                [
                    -0.06459,
                    1.143,
                    3e-05
                ],
                [
                    0.0,
                    0.0,
                    1.09296
                ]
            ],
            [
                [
                    1.75061,
                    0.03009,
                    0.0299
                ],
                [
                    0.05606,
                    2.0129,
                    0.20157
                ],
                [
                    0.04087,
                    -0.12107,
                    2.06455
                ]
            ],
            [
                [
                    1.7506,
                    0.03004,
                    -0.02995
                ],
                [
                    0.05606,
                    2.01293,
                    -0.20151
                ],
                [
                    -0.04087,
                    0.12107,
                    2.06455
                ]
            ],
            [
                [
                    1.7506,
                    -0.03004,
                    -0.02995
                ],
                [
                    -0.05606,
                    2.0129,
                    0.20157
                ],
                [
                    -0.04087,
                    -0.12107,
                    2.06455
                ]
            ],
            [
                [
                    1.75061,
                    -0.03009,
                    0.0299
                ],
                [
                    -0.05606,
                    2.01293,
                    -0.20151
                ],
                [
                    0.04087,
                    0.12107,
                    2.06455
                ]
            ],
            [
                [
                    3.19814,
                    0.15924,
                    0.04264
                ],
                [
                    -0.18095,
                    2.8066,
                    -0.44176
                ],
                [
                    -0.1788,
                    0.20081,
                    2.78109
                ]
            ],
            [
                [
                    3.19814,
                    0.15924,
                    -0.04264
                ],
                [
                    -0.18098,
                    2.80658,
                    0.44185
                ],
                [
                    0.1788,
                    -0.20081,
                    2.78109
                ]
            ],
            [
                [
                    3.19814,
                    -0.15924,
                    -0.04264
                ],
                [
                    0.18095,
                    2.8066,
                    -0.44176
                ],
                [
                    0.1788,
                    0.20081,
                    2.78109
                ]
            ],
            [
                [
                    3.19814,
                    -0.15924,
                    0.04264
                ],
                [
                    0.18098,
                    2.80658,
                    0.44185
                ],
                [
                    -0.1788,
                    -0.20081,
                    2.78109
                ]
            ],
            [
                [
                    -1.31651,
                    -0.35684,
                    -0.01761
                ],
                [
                    -0.26331,
                    -2.32391,
                    0.26671
                ],
                [
                    0.01806,
                    0.14932,
                    -1.32441
                ]
            ],
            [
                [
                    -1.31652,
                    -0.35685,
                    0.01764
                ],
                [
                    -0.26327,
                    -2.32406,
                    -0.26683
                ],
                [
                    -0.01806,
                    -0.14932,
                    -1.32441
                ]
            ],
            [
                [
                    -1.31652,
                    0.35685,
                    0.01764
                ],
                [
                    0.26331,
                    -2.32391,
                    0.26671
                ],
                [
                    -0.01806,
                    0.14932,
                    -1.32441
                ]
            ],
            [
                [
                    -1.31651,
                    0.35684,
                    -0.01761
                ],
                [
                    0.26327,
                    -2.32406,
                    -0.26683
                ],
                [
                    0.01806,
                    -0.14932,
                    -1.32441
                ]
            ],
            [
                [
                    -1.85217,
                    0.32138,
                    0.10556
                ],
                [
                    0.34935,
                    -1.5398,
                    -0.29282
                ],
                [
                    0.11784,
                    -0.40969,
                    -1.90552
                ]
            ],
            [
                [
                    -1.85215,
                    0.32137,
                    -0.10555
                ],
                [
                    0.34931,
                    -1.53982,
                    0.29288
                ],
                [
                    -0.11784,
                    0.40969,
                    -1.90552
                ]
            ],
            [
                [
                    -1.85215,
                    -0.32137,
                    -0.10555
                ],
                [
                    -0.34935,
                    -1.5398,
                    -0.29282
                ],
                [
                    -0.11784,
                    -0.40969,
                    -1.90552
                ]
            ],
            [
                [
                    -1.85217,
                    -0.32138,
                    0.10556
                ],
                [
                    -0.34931,
                    -1.53982,
                    0.29288
                ],
                [
                    0.11784,
                    0.40969,
                    -1.90552
                ]
            ],
            [
                [
                    -1.31911,
                    0.16969,
                    -0.26195
                ],
                [
                    0.1653,
                    -1.44005,
                    0.29236
                ],
                [
                    -0.14556,
                    0.16878,
                    -2.14782
                ]
            ],
            [
                [
                    -1.3191,
                    0.16966,
                    0.26195
                ],
                [
                    0.16527,
                    -1.44001,
                    -0.29251
                ],
                [
                    0.14556,
                    -0.16878,
                    -2.14782
                ]
            ],
            [
                [
                    -1.3191,
                    -0.16966,
                    0.26195
                ],
                [
                    -0.1653,
                    -1.44005,
                    0.29236
                ],
                [
                    0.14556,
                    0.16878,
                    -2.14782
                ]
            ],
            [
                [
                    -1.31911,
                    -0.16969,
                    -0.26195
                ],
                [
                    -0.16527,
                    -1.44001,
                    -0.29251
                ],
                [
                    -0.14556,
                    -0.16878,
                    -2.14782
                ]
            ],
            [
                [
                    -2.97684,
                    -2e-05,
                    1e-05
                ],
                [
                    -0.0,
                    -1.27116,
                    -0.01138
                ],
                [
                    0.0,
                    0.1265,
                    -1.14141
                ]
            ],
            [
                [
                    -2.97684,
                    2e-05,
                    1e-05
                ],
                [
                    -0.0,
                    -1.2711,
                    0.0114
                ],
                [
                    0.0,
                    -0.1265,
                    -1.14141
                ]
            ]
        ]
    },
    "band_gap": 3.7824,
    "is_direct": false,
    "formula": "Na2Zn2Si2O7"
}