{
    "mp_id": "mp-6406",
    "nelements": 4,
    "nsites": 16,
    "elements": [
        "Mg",
        "Na",
        "O",
        "Si"
    ],
    "structure": {
        "@module": "pymatgen.core.structure",
        "@class": "Structure",
        "charge": null,
        "lattice": {
            "matrix": [
                [
                    5.24499657,
                    0.0,
                    -5.082e-05
                ],
                [
                    0.0,
                    5.50646346,
                    0.0
                ],
                [
                    -5.22338142,
                    0.0,
                    6.93084748
                ]
            ],
            "a": 5.244996570246203,
            "b": 5.50646346,
            "c": 8.67873033627751,
            "alpha": 90.0,
            "beta": 127.0037884002074,
            "gamma": 90.0,
            "volume": 200.17099167697845
        },
        "sites": [
            {
                "species": [
                    {
                        "element": "Na",
                        "occu": 1
                    }
                ],
                "abc": [
                    0.26234258,
                    0.66672682,
                    0.75033006
                ],
                "xyz": [
                    -2.5432741620065347,
                    3.6713068721319977,
                    5.200409873269333
                ],
                "label": "Na",
                "properties": {}
            },
            {
                "species": [
                    {
                        "element": "Na",
                        "occu": 1
                    }
                ],
                "abc": [
                    0.51450271,
                    0.81796924,
                    0.50576687
                ],
                "xyz": [
                    0.05675167759614963,
                    4.50411773146397,
                    3.5053668893792653
                ],
                "label": "Na",
                "properties": {}
            },
            {
                "species": [
                    {
                        "element": "Na",
                        "occu": 1
                    }
                ],
                "abc": [
                    0.26234258,
                    0.33327318,
                    0.25033006
                ],
                "xyz": [
                    0.06841654799346508,
                    1.8351565878680027,
                    1.7349861332693333
                ],
                "label": "Na",
                "properties": {}
            },
            {
                "species": [
                    {
                        "element": "Na",
                        "occu": 1
                    }
                ],
                "abc": [
                    0.51450271,
                    0.18203076,
                    0.00576687
                ],
                "xyz": [
                    2.6684423875961496,
                    1.0023457285360298,
                    0.0399431493792654
                ],
                "label": "Na",
                "properties": {}
            },
            {
                "species": [
                    {
                        "element": "Mg",
                        "occu": 1
                    }
                ],
                "abc": [
                    0.99894684,
                    0.81588158,
                    0.99949606
                ],
                "xyz": [
                    0.0187236002451332,
                    4.492622107957067,
                    6.92730398224252
                ],
                "label": "Mg",
                "properties": {}
            },
            {
                "species": [
                    {
                        "element": "Mg",
                        "occu": 1
                    }
                ],
                "abc": [
                    0.99894684,
                    0.18411842,
                    0.49949606
                ],
                "xyz": [
                    2.630414310245133,
                    1.0138413520429332,
                    3.46188024224252
                ],
                "label": "Mg",
                "properties": {}
            },
            {
                "species": [
                    {
                        "element": "Si",
                        "occu": 1
                    }
                ],
                "abc": [
                    0.74732631,
                    0.68562055,
                    0.25237576
                ],
                "xyz": [
                    2.6014690769783773,
                    3.7753445060001027,
                    1.7491399210860106
                ],
                "label": "Si",
                "properties": {}
            },
            {
                "species": [
                    {
                        "element": "Si",
                        "occu": 1
                    }
                ],
                "abc": [
                    0.74732631,
                    0.31437945,
                    0.75237576
                ],
                "xyz": [
                    -0.010221633021622267,
                    1.731118953999897,
                    5.21456366108601
                ],
                "label": "Si",
                "properties": {}
            },
            {
                "species": [
                    {
                        "element": "O",
                        "occu": 1
                    }
                ],
                "abc": [
                    0.6914655,
                    0.2078658,
                    0.55665078
                ],
                "xyz": [
                    0.7191348340928267,
                    1.1446054322836678,
                    3.8580265155263245
                ],
                "label": "O",
                "properties": {}
            },
            {
                "species": [
                    {
                        "element": "O",
                        "occu": 1
                    }
                ],
                "abc": [
                    0.6914655,
                    0.7921342,
                    0.05665078
                ],
                "xyz": [
                    3.3308255440928267,
                    4.361858027716332,
                    0.3926027755263244
                ],
                "label": "O",
                "properties": {}
            },
            {
                "species": [
                    {
                        "element": "O",
                        "occu": 1
                    }
                ],
                "abc": [
                    0.02401542,
                    0.15792678,
                    0.94613523
                ],
                "xyz": [
                    -4.816064385662317,
                    0.8696180434254588,
                    6.557517754121076
                ],
                "label": "O",
                "properties": {}
            },
            {
                "species": [
                    {
                        "element": "O",
                        "occu": 1
                    }
                ],
                "abc": [
                    0.02401542,
                    0.84207322,
                    0.44613523
                ],
                "xyz": [
                    -2.204373675662317,
                    4.636845416574541,
                    3.0920940141210758
                ],
                "label": "O",
                "properties": {}
            },
            {
                "species": [
                    {
                        "element": "O",
                        "occu": 1
                    }
                ],
                "abc": [
                    0.40981974,
                    0.71000938,
                    0.2255527
                ],
                "xyz": [
                    0.9713553482074575,
                    3.909640707227255,
                    1.563250535363009
                ],
                "label": "O",
                "properties": {}
            },
            {
                "species": [
                    {
                        "element": "O",
                        "occu": 1
                    }
                ],
                "abc": [
                    0.8521009,
                    0.3967148,
                    0.28014254
                ],
                "xyz": [
                    3.0059749594063065,
                    2.184495550241208,
                    1.941581913632061
                ],
                "label": "O",
                "properties": {}
            },
            {
                "species": [
                    {
                        "element": "O",
                        "occu": 1
                    }
                ],
                "abc": [
                    0.8521009,
                    0.6032852,
                    0.78014254
                ],
                "xyz": [
                    0.39428424940630613,
                    3.3219679097587917,
                    5.407005653632061
                ],
                "label": "O",
                "properties": {}
            },
            {
                "species": [
                    {
                        "element": "O",
                        "occu": 1
                    }
                ],
                "abc": [
                    0.40981974,
                    0.28999062,
                    0.7255527
                ],
                "xyz": [
                    -1.640335361792543,
                    1.596822752772745,
                    5.028674275363009
                ],
                "label": "O",
                "properties": {}
            }
        ]
    },
    "spacegroup": {
        "source": "spglib",
        "symbol": "Pc",
        "number": 7,
        "point_group": "m",
        "crystal_system": "monoclinic",
        "hall": "P -2yc"
    },
    "dielectric": {
        "epsilon_ionic": [
            [
                3.33372595,
                2e-08,
                -0.01518925
            ],
            [
                2e-08,
                2.73167157,
                -2e-08
            ],
            [
                -0.01518925,
                -2e-08,
                2.44461296
            ]
        ],
        "epsilon_ionic_avg": 2.8366701600000006,
        "epsilon_ionic_eig": [
            3.333985361372791,
            2.44435354862721,
            2.7316715700000023
        ],
        "epsilon_electronic": [
            [
                2.50596623,
                0.0,
                0.00229256
            ],
            [
                0.0,
                2.51483608,
                0.0
            ],
            [
                0.00229486,
                0.0,
                2.47035719
            ]
        ],
        "epsilon_electronic_avg": 2.497053166666667,
        "epsilon_electronic_eig": [
            2.506113368326517,
            2.4702100516734835,
            2.51483608
        ]
    },
    "phonon": {
        "lowest_freq": -0.18665282048337078,
        "frequency": [
            -0.18665282048337078,
            -0.16876051103630108,
            -0.13416665626456312,
            3.8937665065111804,
            4.107436702615751,
            4.298933677837147,
            5.009601189029456,
            5.5216785483994055,
            5.744029786626937,
            5.783210168800917,
            5.858270326880092,
            5.919480243709506,
            6.227416857177768,
            6.479475236758833,
            6.569892421999077,
            6.612529609648836,
            6.8811126245202745,
            7.235906112206011,
            7.266200786773528,
            7.52985990825103,
            8.365490831342068,
            8.44663034872553,
            8.993422825372312,
            9.73557680799537,
            10.212694879472055,
            10.266353464599899,
            11.309574512905192,
            11.360005748137901,
            11.511500831053493,
            11.816277562893255,
            12.370937106438136,
            13.23561912172552,
            13.842359154090726,
            14.130233370635493,
            15.929610051232075,
            16.203790374661438,
            16.29726565002984,
            16.427744212755936,
            17.011043520496244,
            17.758756460187026,
            24.798376632332157,
            25.09305915796023,
            25.971854877852216,
            26.311590417909155,
            26.398229794960134,
            26.50622767335864,
            26.913148487551148,
            27.85210349917203
        ]
    },
    "born_effective_charge": {
        "avg_abs_trace": 1.6407041666666666,
        "tensors": [
            [
                [
                    1.06345,
                    -0.0165,
                    0.0024
                ],
                [
                    -0.00801,
                    0.99654,
                    0.00399
                ],
                [
                    0.0091,
                    0.00466,
                    1.0668
                ]
            ],
            [
                [
                    1.02041,
                    -0.00409,
                    -0.01877
                ],
                [
                    0.00598,
                    1.02042,
                    0.00726
                ],
                [
                    -0.00011,
                    0.02949,
                    0.96594
                ]
            ],
            [
                [
                    1.06345,
                    0.0165,
                    0.0024
                ],
                [
                    0.00801,
                    0.99654,
                    -0.00399
                ],
                [
                    0.0091,
                    -0.00466,
                    1.0668
                ]
            ],
            [
                [
                    1.02041,
                    0.00409,
                    -0.01877
                ],
                [
                    -0.00598,
                    1.02042,
                    -0.00726
                ],
                [
                    -0.00011,
                    -0.02949,
                    0.96594
                ]
            ],
            [
                [
                    1.86811,
                    -0.04533,
                    0.10387
                ],
                [
                    0.01601,
                    1.91702,
                    0.04169
                ],
                [
                    -0.08242,
                    -0.12502,
                    1.76317
                ]
            ],
            [
                [
                    1.86811,
                    0.04533,
                    0.10387
                ],
                [
                    -0.01601,
                    1.91702,
                    -0.04169
                ],
                [
                    -0.08242,
                    0.12502,
                    1.76317
                ]
            ],
            [
                [
                    2.67181,
                    0.02258,
                    -0.08916
                ],
                [
                    -0.05188,
                    2.65291,
                    0.07645
                ],
                [
                    0.08674,
                    -0.10601,
                    2.68187
                ]
            ],
            [
                [
                    2.67181,
                    -0.02258,
                    -0.08916
                ],
                [
                    0.05188,
                    2.65291,
                    -0.07645
                ],
                [
                    0.08674,
                    0.10601,
                    2.68187
                ]
            ],
            [
                [
                    -1.73878,
                    0.14974,
                    0.41491
                ],
                [
                    0.13551,
                    -1.36094,
                    -0.19449
                ],
                [
                    0.40303,
                    -0.26514,
                    -1.83032
                ]
            ],
            [
                [
                    -1.73878,
                    -0.14974,
                    0.41491
                ],
                [
                    -0.13551,
                    -1.36094,
                    0.19449
                ],
                [
                    0.40303,
                    0.26514,
                    -1.83032
                ]
            ],
            [
                [
                    -1.33844,
                    0.08762,
                    -0.17223
                ],
                [
                    0.06872,
                    -1.78936,
                    0.44443
                ],
                [
                    -0.16503,
                    0.44588,
                    -1.81668
                ]
            ],
            [
                [
                    -1.33844,
                    -0.08762,
                    -0.17223
                ],
                [
                    -0.06872,
                    -1.78936,
                    -0.44443
                ],
                [
                    -0.16503,
                    -0.44588,
                    -1.81668
                ]
            ],
            [
                [
                    -2.21331,
                    0.09945,
                    -0.24317
                ],
                [
                    0.1008,
                    -1.25997,
                    0.02402
                ],
                [
                    -0.25887,
                    0.0847,
                    -1.41185
                ]
            ],
            [
                [
                    -1.33325,
                    0.14642,
                    0.00215
                ],
                [
                    0.15922,
                    -2.17662,
                    0.25467
                ],
                [
                    0.00757,
                    0.26972,
                    -1.41893
                ]
            ],
            [
                [
                    -1.33325,
                    -0.14642,
                    0.00215
                ],
                [
                    -0.15922,
                    -2.17662,
                    -0.25467
                ],
                [
                    0.00757,
                    -0.26972,
                    -1.41893
                ]
            ],
            [
                [
                    -2.21331,
                    -0.09945,
                    -0.24317
                ],
                [
                    -0.1008,
                    -1.25997,
                    -0.02402
                ],
                [
                    -0.25887,
                    -0.0847,
                    -1.41185
                ]
            ]
        ]
    },
    "band_gap": 3.8845,
    "is_direct": false,
    "formula": "Na2MgSiO4"
}