{
    "mp_id": "mp-6675",
    "nelements": 4,
    "nsites": 22,
    "elements": [
        "Na",
        "O",
        "Si",
        "Zn"
    ],
    "structure": {
        "@module": "pymatgen.core.structure",
        "@class": "Structure",
        "charge": null,
        "lattice": {
            "matrix": [
                [
                    0.0,
                    10.58347944,
                    3.70987173
                ],
                [
                    3.54168673,
                    0.0,
                    3.70987173
                ],
                [
                    3.54168673,
                    10.58347944,
                    0.0
                ]
            ],
            "a": 11.2148644802314,
            "b": 5.129005083494389,
            "c": 11.160357608533912,
            "alpha": 77.34184752641943,
            "beta": 26.50168900399316,
            "gamma": 76.15646346958742,
            "volume": 278.116979695475
        },
        "sites": [
            {
                "species": [
                    {
                        "element": "Na",
                        "occu": 1
                    }
                ],
                "abc": [
                    0.66322994,
                    0.28601284,
                    0.18010995
                ],
                "xyz": [
                    1.6508608998935768,
                    8.925470386746861,
                    3.5215689544286093
                ],
                "label": "Na",
                "properties": {}
            },
            {
                "species": [
                    {
                        "element": "Na",
                        "occu": 1
                    }
                ],
                "abc": [
                    0.28601284,
                    0.66322994,
                    0.87064827
                ],
                "xyz": [
                    5.432516101793153,
                    12.241499076732579,
                    3.5215689544286093
                ],
                "label": "Na",
                "properties": {}
            },
            {
                "species": [
                    {
                        "element": "Na",
                        "occu": 1
                    }
                ],
                "abc": [
                    0.37935173,
                    0.06989005,
                    0.96398716
                ],
                "xyz": [
                    3.661669195106423,
                    14.217199523267421,
                    1.6666293795568796
                ],
                "label": "Na",
                "properties": {}
            },
            {
                "species": [
                    {
                        "element": "Na",
                        "occu": 1
                    }
                ],
                "abc": [
                    0.06989005,
                    0.37935173,
                    0.58677006
                ],
                "xyz": [
                    3.421700723206847,
                    6.949748773253138,
                    1.6666293795568796
                ],
                "label": "Na",
                "properties": {}
            },
            {
                "species": [
                    {
                        "element": "Zn",
                        "occu": 1
                    }
                ],
                "abc": [
                    0.24792588,
                    0.24792588,
                    0.75207412
                ],
                "xyz": [
                    3.5416867299999995,
                    10.583479439999998,
                    1.8395464266947448
                ],
                "label": "Zn",
                "properties": {}
            },
            {
                "species": [
                    {
                        "element": "Zn",
                        "occu": 1
                    }
                ],
                "abc": [
                    0.49792588,
                    0.49792588,
                    0.00207412
                ],
                "xyz": [
                    1.770843365,
                    5.291739719999999,
                    3.694482291694745
                ],
                "label": "Zn",
                "properties": {}
            },
            {
                "species": [
                    {
                        "element": "Si",
                        "occu": 1
                    }
                ],
                "abc": [
                    0.22638414,
                    0.81992005,
                    0.60920657
                ],
                "xyz": [
                    5.061518785543752,
                    8.843457099540002,
                    3.881654335461549
                ],
                "label": "Si",
                "properties": {}
            },
            {
                "species": [
                    {
                        "element": "Si",
                        "occu": 1
                    }
                ],
                "abc": [
                    0.81992005,
                    0.22638414,
                    0.34448924
                ],
                "xyz": [
                    2.0218546744562476,
                    12.323501780459997,
                    3.881654335461549
                ],
                "label": "Si",
                "properties": {}
            },
            {
                "species": [
                    {
                        "element": "Si",
                        "occu": 1
                    }
                ],
                "abc": [
                    0.90551076,
                    0.64079343,
                    0.43007995
                ],
                "xyz": [
                    3.7926980394562473,
                    14.135196819540003,
                    5.736590200461549
                ],
                "label": "Si",
                "properties": {}
            },
            {
                "species": [
                    {
                        "element": "Si",
                        "occu": 1
                    }
                ],
                "abc": [
                    0.64079343,
                    0.90551076,
                    0.02361586
                ],
                "xyz": [
                    3.290675420543752,
                    7.0317620604599975,
                    5.736590200461549
                ],
                "label": "Si",
                "properties": {}
            },
            {
                "species": [
                    {
                        "element": "O",
                        "occu": 1
                    }
                ],
                "abc": [
                    0.31117694,
                    0.90532086,
                    0.65684645
                ],
                "xyz": [
                    5.532707231866796,
                    10.2450556455041,
                    4.513050797827194
                ],
                "label": "O",
                "properties": {}
            },
            {
                "species": [
                    {
                        "element": "O",
                        "occu": 1
                    }
                ],
                "abc": [
                    0.90532086,
                    0.31117694,
                    0.12665576
                ],
                "xyz": [
                    1.550666263550071,
                    10.921903340330692,
                    4.513050797827194
                ],
                "label": "O",
                "properties": {}
            },
            {
                "species": [
                    {
                        "element": "O",
                        "occu": 1
                    }
                ],
                "abc": [
                    0.12334424,
                    0.59315355,
                    0.34467914
                ],
                "xyz": [
                    3.3215095931332037,
                    4.953315819669307,
                    2.658114895728477
                ],
                "label": "O",
                "properties": {}
            },
            {
                "species": [
                    {
                        "element": "O",
                        "occu": 1
                    }
                ],
                "abc": [
                    0.59315355,
                    0.12334424,
                    0.93882306
                ],
                "xyz": [
                    3.761863831449929,
                    16.2136429544959,
                    2.658114895728477
                ],
                "label": "O",
                "properties": {}
            },
            {
                "species": [
                    {
                        "element": "O",
                        "occu": 1
                    }
                ],
                "abc": [
                    0.91670811,
                    0.9639742,
                    0.84590451
                ],
                "xyz": [
                    6.410023410116518,
                    18.65457442445453,
                    6.977090134980097
                ],
                "label": "O",
                "properties": {}
            },
            {
                "species": [
                    {
                        "element": "O",
                        "occu": 1
                    }
                ],
                "abc": [
                    0.9639742,
                    0.91670811,
                    0.27341318
                ],
                "xyz": [
                    4.215036779883481,
                    13.095863895545467,
                    6.977090134980097
                ],
                "label": "O",
                "properties": {}
            },
            {
                "species": [
                    {
                        "element": "O",
                        "occu": 1
                    }
                ],
                "abc": [
                    0.97658682,
                    0.40409549,
                    0.2860258
                ],
                "xyz": [
                    2.4441934148834816,
                    13.362834704454531,
                    5.122154269980097
                ],
                "label": "O",
                "properties": {}
            },
            {
                "species": [
                    {
                        "element": "O",
                        "occu": 1
                    }
                ],
                "abc": [
                    0.40409549,
                    0.97658682,
                    0.33329189
                ],
                "xyz": [
                    4.639180045116518,
                    7.804124175545466,
                    5.122154269980097
                ],
                "label": "O",
                "properties": {}
            },
            {
                "species": [
                    {
                        "element": "O",
                        "occu": 1
                    }
                ],
                "abc": [
                    0.25511863,
                    0.50003041,
                    0.59042817
                ],
                "xyz": [
                    3.8620626824006434,
                    8.948827173357792,
                    2.8015060754326395
                ],
                "label": "O",
                "properties": {}
            },
            {
                "species": [
                    {
                        "element": "O",
                        "occu": 1
                    }
                ],
                "abc": [
                    0.50003041,
                    0.25511863,
                    0.65442378
                ],
                "xyz": [
                    3.2213142838692193,
                    12.218142184286855,
                    2.8015060754326395
                ],
                "label": "O",
                "properties": {}
            },
            {
                "species": [
                    {
                        "element": "O",
                        "occu": 1
                    }
                ],
                "abc": [
                    0.65957183,
                    0.59557622,
                    0.99488137
                ],
                "xyz": [
                    5.632902541130781,
                    17.509871426642206,
                    4.6564382676596265
                ],
                "label": "O",
                "properties": {}
            },
            {
                "species": [
                    {
                        "element": "O",
                        "occu": 1
                    }
                ],
                "abc": [
                    0.59557622,
                    0.65957183,
                    0.74996959
                ],
                "xyz": [
                    4.992154142599356,
                    14.240556415713145,
                    4.6564382676596265
                ],
                "label": "O",
                "properties": {}
            }
        ]
    },
    "spacegroup": {
        "source": "spglib",
        "symbol": "Fdd2",
        "number": 43,
        "point_group": "mm2",
        "crystal_system": "orthorhombic",
        "hall": "F 2 -2d"
    },
    "dielectric": {
        "epsilon_ionic": [
            [
                3.14314657,
                4e-08,
                5.578e-05
            ],
            [
                4e-08,
                2.33243903,
                3.837e-05
            ],
            [
                5.578e-05,
                3.837e-05,
                4.31698324
            ]
        ],
        "epsilon_ionic_avg": 3.2641896133333312,
        "epsilon_ionic_eig": [
            3.143146567349371,
            4.316983243392488,
            2.3324390292581363
        ],
        "epsilon_electronic": [
            [
                2.56567576,
                0.0,
                0.0
            ],
            [
                0.0,
                2.55291308,
                0.0
            ],
            [
                0.0,
                0.0,
                2.59666995
            ]
        ],
        "epsilon_electronic_avg": 2.57175293,
        "epsilon_electronic_eig": [
            2.56567576,
            2.55291308,
            2.59666995
        ]
    },
    "phonon": {
        "lowest_freq": -0.131437705657736,
        "frequency": [
            -0.131437705657736,
            -0.07414651743490515,
            -0.05287851246611212,
            2.2063792093397363,
            2.2134901307815644,
            2.8254740235586184,
            3.1629713051271784,
            3.4011305699641152,
            3.8936869202511653,
            4.136245934635,
            4.299466006492403,
            4.4324227047877045,
            4.4958788693131,
            4.674190972916033,
            4.816484221396626,
            5.017844226993593,
            5.587186652580808,
            5.807030526196928,
            5.95995591683585,
            6.304480465699287,
            6.711939822731122,
            6.80401425057036,
            6.839408984235481,
            6.881853675661575,
            7.0499734581283935,
            7.1096087461959865,
            7.371736663936153,
            7.502748524502774,
            7.995505548529413,
            8.153127480280872,
            8.349653883803802,
            8.461786729138087,
            9.944646454093773,
            10.110157631364114,
            10.912577726282876,
            11.104649350150433,
            11.714434988657557,
            11.800219582847028,
            12.00868560546018,
            12.071954813420403,
            12.60011118811138,
            12.668194709865718,
            13.107401343969727,
            13.33503867065625,
            14.177605013715162,
            14.194273842308085,
            15.455457276744243,
            16.25276203827149,
            16.530873972646297,
            16.634097578660857,
            18.877108525309694,
            18.884264994689023,
            20.368423274488887,
            20.41778763919867,
            26.53057326561673,
            26.548487080991347,
            26.551698054874954,
            27.202181730512063,
            28.543081659188,
            28.74704436116116,
            29.483139804973472,
            29.57113089839196,
            29.847654446358717,
            30.07767784356929,
            30.607674444047824,
            31.760384643829937
        ]
    },
    "born_effective_charge": {
        "avg_abs_trace": 1.827840303030303,
        "tensors": [
            [
                [
                    1.07998,
                    0.02211,
                    -0.00663
                ],
                [
                    0.0305,
                    1.03371,
                    0.00521
                ],
                [
                    -0.00696,
                    -0.00352,
                    1.06957
                ]
            ],
            [
                [
                    1.07995,
                    0.02214,
                    0.00668
                ],
                [
                    0.03048,
                    1.03375,
                    -0.00508
                ],
                [
                    0.00696,
                    0.00352,
                    1.06957
                ]
            ],
            [
                [
                    1.07995,
                    -0.02214,
                    0.00668
                ],
                [
                    -0.0305,
                    1.03371,
                    0.00521
                ],
                [
                    0.00696,
                    -0.00352,
                    1.06957
                ]
            ],
            [
                [
                    1.07998,
                    -0.02211,
                    -0.00663
                ],
                [
                    -0.03048,
                    1.03375,
                    -0.00508
                ],
                [
                    -0.00696,
                    0.00352,
                    1.06957
                ]
            ],
            [
                [
                    1.93079,
                    -0.1675,
                    7e-05
                ],
                [
                    0.22349,
                    1.96134,
                    0.00012
                ],
                [
                    -0.0,
                    -0.0,
                    1.91277
                ]
            ],
            [
                [
                    1.93079,
                    0.1675,
                    7e-05
                ],
                [
                    -0.22349,
                    1.96134,
                    0.00012
                ],
                [
                    -0.0,
                    -0.0,
                    1.91277
                ]
            ],
            [
                [
                    2.97815,
                    0.31926,
                    -0.08601
                ],
                [
                    -0.3208,
                    2.96165,
                    -0.19145
                ],
                [
                    -0.04628,
                    0.20489,
                    3.05418
                ]
            ],
            [
                [
                    2.97822,
                    0.31923,
                    0.08592
                ],
                [
                    -0.32079,
                    2.96156,
                    0.19167
                ],
                [
                    0.04628,
                    -0.20489,
                    3.05418
                ]
            ],
            [
                [
                    2.97822,
                    -0.31923,
                    0.08592
                ],
                [
                    0.3208,
                    2.96165,
                    -0.19145
                ],
                [
                    0.04628,
                    0.20489,
                    3.05418
                ]
            ],
            [
                [
                    2.97815,
                    -0.31926,
                    -0.08601
                ],
                [
                    0.32079,
                    2.96156,
                    0.19167
                ],
                [
                    -0.04628,
                    -0.20489,
                    3.05418
                ]
            ],
            [
                [
                    -1.57738,
                    -0.36581,
                    -0.41727
                ],
                [
                    -0.33644,
                    -1.78231,
                    -0.322
                ],
                [
                    -0.426,
                    -0.37896,
                    -1.53324
                ]
            ],
            [
                [
                    -1.57755,
                    -0.36574,
                    0.4172
                ],
                [
                    -0.33629,
                    -1.78212,
                    0.32167
                ],
                [
                    0.426,
                    0.37896,
                    -1.53324
                ]
            ],
            [
                [
                    -1.57755,
                    0.36574,
                    0.4172
                ],
                [
                    0.33644,
                    -1.78231,
                    -0.322
                ],
                [
                    0.426,
                    -0.37896,
                    -1.53324
                ]
            ],
            [
                [
                    -1.57738,
                    0.36581,
                    -0.41727
                ],
                [
                    0.33629,
                    -1.78212,
                    0.32167
                ],
                [
                    -0.426,
                    0.37896,
                    -1.53324
                ]
            ],
            [
                [
                    -1.80101,
                    0.61225,
                    0.51206
                ],
                [
                    0.54568,
                    -1.64905,
                    -0.63433
                ],
                [
                    0.49784,
                    -0.70306,
                    -1.83126
                ]
            ],
            [
                [
                    -1.80127,
                    0.6122,
                    -0.51201
                ],
                [
                    0.54565,
                    -1.64977,
                    0.63436
                ],
                [
                    -0.49784,
                    0.70306,
                    -1.83126
                ]
            ],
            [
                [
                    -1.80127,
                    -0.6122,
                    -0.51201
                ],
                [
                    -0.54568,
                    -1.64905,
                    -0.63433
                ],
                [
                    -0.49784,
                    -0.70306,
                    -1.83126
                ]
            ],
            [
                [
                    -1.80101,
                    -0.61225,
                    0.51206
                ],
                [
                    -0.54565,
                    -1.64977,
                    0.63436
                ],
                [
                    0.49784,
                    0.70306,
                    -1.83126
                ]
            ],
            [
                [
                    -1.645,
                    0.13014,
                    -0.46726
                ],
                [
                    0.23397,
                    -1.54448,
                    0.33733
                ],
                [
                    -0.4896,
                    0.24229,
                    -1.71564
                ]
            ],
            [
                [
                    -1.64486,
                    0.12963,
                    0.46725
                ],
                [
                    0.23411,
                    -1.54428,
                    -0.33748
                ],
                [
                    0.4896,
                    -0.24229,
                    -1.71564
                ]
            ],
            [
                [
                    -1.645,
                    -0.13014,
                    -0.46726
                ],
                [
                    -0.23411,
                    -1.54428,
                    -0.33748
                ],
                [
                    -0.4896,
                    -0.24229,
                    -1.71564
                ]
            ],
            [
                [
                    -1.64486,
                    -0.12963,
                    0.46725
                ],
                [
                    -0.23397,
                    -1.54448,
                    0.33733
                ],
                [
                    0.4896,
                    0.24229,
                    -1.71564
                ]
            ]
        ]
    },
    "band_gap": 4.1969,
    "is_direct": false,
    "formula": "Na2Zn(SiO3)2"
}