{
    "mp_id": "mp-6273",
    "nelements": 4,
    "nsites": 20,
    "elements": [
        "Ba",
        "Na",
        "O",
        "Sb"
    ],
    "structure": {
        "@module": "pymatgen.core.structure",
        "@class": "Structure",
        "charge": null,
        "lattice": {
            "matrix": [
                [
                    -4.1463835,
                    4.1463835,
                    4.1463835
                ],
                [
                    4.1463835,
                    -4.1463835,
                    4.1463835
                ],
                [
                    4.1463835,
                    4.1463835,
                    -4.1463835
                ]
            ],
            "a": 7.181746889665267,
            "b": 7.181746889665267,
            "c": 7.181746889665267,
            "alpha": 109.47122063449069,
            "beta": 109.47122063449069,
            "gamma": 109.47122063449069,
            "volume": 285.1467290935961
        },
        "sites": [
            {
                "species": [
                    {
                        "element": "Ba",
                        "occu": 1
                    }
                ],
                "abc": [
                    0.0,
                    0.5,
                    0.0
                ],
                "xyz": [
                    2.07319175,
                    -2.07319175,
                    2.07319175
                ],
                "label": "Ba",
                "properties": {}
            },
            {
                "species": [
                    {
                        "element": "Ba",
                        "occu": 1
                    }
                ],
                "abc": [
                    0.5,
                    0.0,
                    0.0
                ],
                "xyz": [
                    -2.07319175,
                    2.07319175,
                    2.07319175
                ],
                "label": "Ba",
                "properties": {}
            },
            {
                "species": [
                    {
                        "element": "Ba",
                        "occu": 1
                    }
                ],
                "abc": [
                    0.0,
                    0.0,
                    0.5
                ],
                "xyz": [
                    2.07319175,
                    2.07319175,
                    -2.07319175
                ],
                "label": "Ba",
                "properties": {}
            },
            {
                "species": [
                    {
                        "element": "Ba",
                        "occu": 1
                    }
                ],
                "abc": [
                    0.5,
                    0.5,
                    0.5
                ],
                "xyz": [
                    2.07319175,
                    2.07319175,
                    2.07319175
                ],
                "label": "Ba",
                "properties": {}
            },
            {
                "species": [
                    {
                        "element": "Na",
                        "occu": 1
                    }
                ],
                "abc": [
                    0.0,
                    0.0,
                    0.0
                ],
                "xyz": [
                    0.0,
                    0.0,
                    0.0
                ],
                "label": "Na",
                "properties": {}
            },
            {
                "species": [
                    {
                        "element": "Sb",
                        "occu": 1
                    }
                ],
                "abc": [
                    0.0,
                    0.5,
                    0.5
                ],
                "xyz": [
                    4.1463835,
                    0.0,
                    0.0
                ],
                "label": "Sb",
                "properties": {}
            },
            {
                "species": [
                    {
                        "element": "Sb",
                        "occu": 1
                    }
                ],
                "abc": [
                    0.5,
                    0.5,
                    0.0
                ],
                "xyz": [
                    0.0,
                    0.0,
                    4.1463835
                ],
                "label": "Sb",
                "properties": {}
            },
            {
                "species": [
                    {
                        "element": "Sb",
                        "occu": 1
                    }
                ],
                "abc": [
                    0.5,
                    0.0,
                    0.5
                ],
                "xyz": [
                    0.0,
                    4.1463835,
                    0.0
                ],
                "label": "Sb",
                "properties": {}
            },
            {
                "species": [
                    {
                        "element": "O",
                        "occu": 1
                    }
                ],
                "abc": [
                    0.729887,
                    0.729887,
                    0.0
                ],
                "xyz": [
                    0.0,
                    0.0,
                    6.052782827329
                ],
                "label": "O",
                "properties": {}
            },
            {
                "species": [
                    {
                        "element": "O",
                        "occu": 1
                    }
                ],
                "abc": [
                    0.270113,
                    0.0,
                    0.270113
                ],
                "xyz": [
                    0.0,
                    2.239984172671,
                    0.0
                ],
                "label": "O",
                "properties": {}
            },
            {
                "species": [
                    {
                        "element": "O",
                        "occu": 1
                    }
                ],
                "abc": [
                    0.729887,
                    0.0,
                    0.729887
                ],
                "xyz": [
                    0.0,
                    6.052782827329,
                    0.0
                ],
                "label": "O",
                "properties": {}
            },
            {
                "species": [
                    {
                        "element": "O",
                        "occu": 1
                    }
                ],
                "abc": [
                    0.0,
                    0.729887,
                    0.729887
                ],
                "xyz": [
                    6.052782827329,
                    0.0,
                    0.0
                ],
                "label": "O",
                "properties": {}
            },
            {
                "species": [
                    {
                        "element": "O",
                        "occu": 1
                    }
                ],
                "abc": [
                    0.0,
                    0.270113,
                    0.270113
                ],
                "xyz": [
                    2.239984172671,
                    0.0,
                    0.0
                ],
                "label": "O",
                "properties": {}
            },
            {
                "species": [
                    {
                        "element": "O",
                        "occu": 1
                    }
                ],
                "abc": [
                    0.270113,
                    0.270113,
                    0.0
                ],
                "xyz": [
                    0.0,
                    0.0,
                    2.239984172671
                ],
                "label": "O",
                "properties": {}
            },
            {
                "species": [
                    {
                        "element": "O",
                        "occu": 1
                    }
                ],
                "abc": [
                    0.25,
                    0.75,
                    0.5
                ],
                "xyz": [
                    4.146383500000001,
                    -4.440892098500626e-16,
                    2.07319175
                ],
                "label": "O",
                "properties": {}
            },
            {
                "species": [
                    {
                        "element": "O",
                        "occu": 1
                    }
                ],
                "abc": [
                    0.75,
                    0.5,
                    0.25
                ],
                "xyz": [
                    -2.220446049250313e-16,
                    2.0731917500000003,
                    4.146383500000001
                ],
                "label": "O",
                "properties": {}
            },
            {
                "species": [
                    {
                        "element": "O",
                        "occu": 1
                    }
                ],
                "abc": [
                    0.75,
                    0.25,
                    0.5
                ],
                "xyz": [
                    -4.440892098500626e-16,
                    4.146383500000001,
                    2.07319175
                ],
                "label": "O",
                "properties": {}
            },
            {
                "species": [
                    {
                        "element": "O",
                        "occu": 1
                    }
                ],
                "abc": [
                    0.5,
                    0.25,
                    0.75
                ],
                "xyz": [
                    2.0731917500000003,
                    4.1463835,
                    0.0
                ],
                "label": "O",
                "properties": {}
            },
            {
                "species": [
                    {
                        "element": "O",
                        "occu": 1
                    }
                ],
                "abc": [
                    0.5,
                    0.75,
                    0.25
                ],
                "xyz": [
                    2.0731917500000003,
                    -2.220446049250313e-16,
                    4.146383500000001
                ],
                "label": "O",
                "properties": {}
            },
            {
                "species": [
                    {
                        "element": "O",
                        "occu": 1
                    }
                ],
                "abc": [
                    0.25,
                    0.5,
                    0.75
                ],
                "xyz": [
                    4.1463835,
                    2.0731917500000003,
                    0.0
                ],
                "label": "O",
                "properties": {}
            }
        ]
    },
    "spacegroup": {
        "source": "spglib",
        "symbol": "Im-3m",
        "number": 229,
        "point_group": "m-3m",
        "crystal_system": "cubic",
        "hall": "-I 4 2 3"
    },
    "dielectric": {
        "epsilon_ionic": [
            [
                18.62246604,
                -0.0,
                1e-08
            ],
            [
                -0.0,
                18.62247544,
                0.0
            ],
            [
                1e-08,
                0.0,
                18.62232367
            ]
        ],
        "epsilon_ionic_avg": 18.622421716666665,
        "epsilon_ionic_eig": [
            18.622466040000702,
            18.622323669999297,
            18.62247544
        ],
        "epsilon_electronic": [
            [
                4.3826351,
                -0.0,
                0.0
            ],
            [
                0.0,
                4.3826351,
                0.0
            ],
            [
                -0.0,
                -0.0,
                4.3826351
            ]
        ],
        "epsilon_electronic_avg": 4.3826351,
        "epsilon_electronic_eig": [
            4.3826351,
            4.3826351,
            4.3826351
        ]
    },
    "phonon": {
        "lowest_freq": -0.038731192785291454,
        "frequency": [
            -0.038731192785291454,
            -0.038731192785291454,
            -0.038731192785291454,
            1.8619282765072342,
            2.7801631430297524,
            2.7801631430297524,
            2.7801631430297524,
            2.7954392187028487,
            2.7954392187028487,
            2.9575520308820242,
            2.9575520308820242,
            2.9575520308820242,
            3.022799891445426,
            3.022799891445426,
            3.022799891445426,
            3.7867303326535975,
            3.7867303326535975,
            3.7867303326535975,
            4.702772892603866,
            4.702772892603866,
            4.702772892603866,
            6.14592466989665,
            6.14592466989665,
            6.14592466989665,
            6.323780110491025,
            6.323780110491025,
            6.323780110491025,
            6.480743041087689,
            6.480743041087689,
            6.480743041087689,
            6.812321442444563,
            6.812321442444563,
            6.812321442444563,
            7.351598189249619,
            7.351598189249619,
            7.351598189249619,
            9.206845199148662,
            9.206845199148662,
            9.206845199148662,
            9.366573969600557,
            9.366573969600557,
            9.366573969600557,
            10.233663997266355,
            10.233663997266355,
            10.233663997266355,
            11.541714757257466,
            11.541714757257466,
            11.541714757257466,
            14.588539560474242,
            16.586191597127645,
            16.586191597127645,
            16.586191597127645,
            17.446775538248183,
            17.446775538248183,
            21.6842929122659,
            21.6842929122659,
            21.869219477338326,
            22.272838220321944,
            22.272838220321944,
            22.272838220321944
        ]
    },
    "born_effective_charge": {
        "avg_abs_trace": 2.665350333333333,
        "tensors": [
            [
                [
                    2.73813,
                    0.21224,
                    -0.21224
                ],
                [
                    0.21223,
                    2.73813,
                    0.21223
                ],
                [
                    -0.21221,
                    0.21221,
                    2.7381
                ]
            ],
            [
                [
                    2.73813,
                    0.21224,
                    0.21224
                ],
                [
                    0.21223,
                    2.73813,
                    -0.21223
                ],
                [
                    0.21221,
                    -0.21221,
                    2.7381
                ]
            ],
            [
                [
                    2.73813,
                    -0.21224,
                    0.21224
                ],
                [
                    -0.21223,
                    2.73813,
                    0.21223
                ],
                [
                    0.21221,
                    0.21221,
                    2.7381
                ]
            ],
            [
                [
                    2.73813,
                    -0.21224,
                    -0.21224
                ],
                [
                    -0.21223,
                    2.73813,
                    -0.21223
                ],
                [
                    -0.21221,
                    -0.21221,
                    2.7381
                ]
            ],
            [
                [
                    1.21372,
                    -0.0,
                    -0.0
                ],
                [
                    -0.0,
                    1.21372,
                    -0.0
                ],
                [
                    -0.0,
                    0.0,
                    1.21372
                ]
            ],
            [
                [
                    3.30803,
                    -0.0,
                    -0.0
                ],
                [
                    -0.0,
                    5.58961,
                    -0.0
                ],
                [
                    -0.0,
                    0.0,
                    5.58962
                ]
            ],
            [
                [
                    5.58962,
                    -0.0,
                    -0.0
                ],
                [
                    -0.0,
                    5.58961,
                    -0.0
                ],
                [
                    -0.0,
                    0.0,
                    3.3081
                ]
            ],
            [
                [
                    5.58962,
                    -0.0,
                    -0.0
                ],
                [
                    -0.0,
                    3.30807,
                    -0.0
                ],
                [
                    -0.0,
                    0.0,
                    5.58962
                ]
            ],
            [
                [
                    -2.04528,
                    0.0,
                    -8e-05
                ],
                [
                    0.0,
                    -2.04528,
                    -2e-05
                ],
                [
                    -0.0,
                    0.0,
                    -1.93384
                ]
            ],
            [
                [
                    -2.04528,
                    8e-05,
                    -0.0
                ],
                [
                    -0.0,
                    -1.93374,
                    -0.0
                ],
                [
                    -0.0,
                    -0.0002,
                    -2.04529
                ]
            ],
            [
                [
                    -2.04528,
                    -8e-05,
                    0.0
                ],
                [
                    -0.0,
                    -1.93295,
                    -0.0
                ],
                [
                    -0.0,
                    0.0002,
                    -2.04529
                ]
            ],
            [
                [
                    -1.93295,
                    -0.0,
                    -0.0
                ],
                [
                    -2e-05,
                    -2.04528,
                    0.0
                ],
                [
                    0.0002,
                    -0.0,
                    -2.04529
                ]
            ],
            [
                [
                    -1.93369,
                    -0.0,
                    -0.0
                ],
                [
                    2e-05,
                    -2.04528,
                    -0.0
                ],
                [
                    -0.0002,
                    -0.0,
                    -2.04529
                ]
            ],
            [
                [
                    -2.04528,
                    -0.0,
                    8e-05
                ],
                [
                    -0.0,
                    -2.04528,
                    2e-05
                ],
                [
                    -0.0,
                    -0.0,
                    -1.93291
                ]
            ],
            [
                [
                    -1.68144,
                    -0.0,
                    0.0
                ],
                [
                    -0.0,
                    -1.68145,
                    -6e-05
                ],
                [
                    -0.0,
                    0.0,
                    -3.93993
                ]
            ],
            [
                [
                    -1.68144,
                    -0.0,
                    -0.0
                ],
                [
                    -0.0,
                    -3.93996,
                    -0.0
                ],
                [
                    -0.0,
                    8e-05,
                    -1.68143
                ]
            ],
            [
                [
                    -1.68144,
                    -0.0,
                    -0.0
                ],
                [
                    -0.0,
                    -1.68145,
                    6e-05
                ],
                [
                    -0.0,
                    0.0,
                    -3.93993
                ]
            ],
            [
                [
                    -3.93999,
                    -0.0,
                    -0.0
                ],
                [
                    6e-05,
                    -1.68145,
                    -0.0
                ],
                [
                    -8e-05,
                    0.0,
                    -1.68143
                ]
            ],
            [
                [
                    -3.93999,
                    -0.0,
                    -0.0
                ],
                [
                    -6e-05,
                    -1.68145,
                    -0.0
                ],
                [
                    8e-05,
                    0.0,
                    -1.68143
                ]
            ],
            [
                [
                    -1.68144,
                    0.0,
                    -0.0
                ],
                [
                    -0.0,
                    -3.93996,
                    -0.0
                ],
                [
                    -0.0,
                    -8e-05,
                    -1.68143
                ]
            ]
        ]
    },
    "band_gap": 1.709,
    "is_direct": false,
    "formula": "Ba4Na(SbO4)3"
}