{
    "mp_id": "mp-6062",
    "nelements": 4,
    "nsites": 20,
    "elements": [
        "Al",
        "B",
        "O",
        "Y"
    ],
    "structure": {
        "@module": "pymatgen.core.structure",
        "@class": "Structure",
        "charge": null,
        "lattice": {
            "matrix": [
                [
                    4.65281752,
                    2.68630577,
                    2.40064288
                ],
                [
                    -4.65281752,
                    2.68630577,
                    2.40064288
                ],
                [
                    0.0,
                    -5.37261155,
                    2.40064288
                ]
            ],
            "a": 5.884559100021763,
            "b": 5.884559100021763,
            "c": 5.884559550594088,
            "alpha": 104.49867166889733,
            "beta": 104.49867166889733,
            "gamma": 104.49866387835863,
            "volume": 180.03223587449511
        },
        "sites": [
            {
                "species": [
                    {
                        "element": "Y",
                        "occu": 1
                    }
                ],
                "abc": [
                    0.0,
                    0.0,
                    0.0
                ],
                "xyz": [
                    0.0,
                    0.0,
                    0.0
                ],
                "label": "Y",
                "properties": {}
            },
            {
                "species": [
                    {
                        "element": "Al",
                        "occu": 1
                    }
                ],
                "abc": [
                    0.44441298,
                    0.0,
                    0.55558702
                ],
                "xyz": [
                    2.0677724994594096,
                    -1.7911240882451867,
                    2.4006428800000004
                ],
                "label": "Al",
                "properties": {}
            },
            {
                "species": [
                    {
                        "element": "Al",
                        "occu": 1
                    }
                ],
                "abc": [
                    0.0,
                    0.55558702,
                    0.44441298
                ],
                "xyz": [
                    -2.5850450205405906,
                    -0.8951816917548137,
                    2.4006428800000004
                ],
                "label": "Al",
                "properties": {}
            },
            {
                "species": [
                    {
                        "element": "Al",
                        "occu": 1
                    }
                ],
                "abc": [
                    0.55558702,
                    0.44441298,
                    0.0
                ],
                "xyz": [
                    0.517272521081181,
                    2.6863057700000006,
                    2.4006428800000004
                ],
                "label": "Al",
                "properties": {}
            },
            {
                "species": [
                    {
                        "element": "B",
                        "occu": 1
                    }
                ],
                "abc": [
                    0.05663018,
                    0.5,
                    0.94336982
                ],
                "xyz": [
                    -2.0629188663352465,
                    -3.5730807265632825,
                    3.60096432
                ],
                "label": "B",
                "properties": {}
            },
            {
                "species": [
                    {
                        "element": "B",
                        "occu": 1
                    }
                ],
                "abc": [
                    0.5,
                    0.94336982,
                    0.05663018
                ],
                "xyz": [
                    -2.0629188663352465,
                    3.5730807165632825,
                    3.60096432
                ],
                "label": "B",
                "properties": {}
            },
            {
                "species": [
                    {
                        "element": "B",
                        "occu": 1
                    }
                ],
                "abc": [
                    0.94336982,
                    0.05663018,
                    0.5
                ],
                "xyz": [
                    4.125837732670493,
                    -4.999999969612645e-09,
                    3.60096432
                ],
                "label": "B",
                "properties": {}
            },
            {
                "species": [
                    {
                        "element": "B",
                        "occu": 1
                    }
                ],
                "abc": [
                    0.5,
                    0.5,
                    0.5
                ],
                "xyz": [
                    0.0,
                    -4.999999969612645e-09,
                    3.60096432
                ],
                "label": "B",
                "properties": {}
            },
            {
                "species": [
                    {
                        "element": "O",
                        "occu": 1
                    }
                ],
                "abc": [
                    0.22046748,
                    0.37068209,
                    0.97125213
                ],
                "xyz": [
                    -0.6989211691679673,
                    -3.6301519107760827,
                    3.7507685168048956
                ],
                "label": "O",
                "properties": {}
            },
            {
                "species": [
                    {
                        "element": "O",
                        "occu": 1
                    }
                ],
                "abc": [
                    0.77953252,
                    0.02874787,
                    0.62931791
                ],
                "xyz": [
                    3.493263973267068,
                    -1.2097923964530102,
                    3.4511601231951037
                ],
                "label": "O",
                "properties": {}
            },
            {
                "species": [
                    {
                        "element": "O",
                        "occu": 1
                    }
                ],
                "abc": [
                    0.62931791,
                    0.77953252,
                    0.02874787
                ],
                "xyz": [
                    -0.6989211691679671,
                    3.6301519007760827,
                    3.4511601231951037
                ],
                "label": "O",
                "properties": {}
            },
            {
                "species": [
                    {
                        "element": "O",
                        "occu": 1
                    }
                ],
                "abc": [
                    0.02874787,
                    0.62931791,
                    0.77953252
                ],
                "xyz": [
                    -2.794342804099101,
                    -2.4203595186990547,
                    3.4511601231951037
                ],
                "label": "O",
                "properties": {}
            },
            {
                "species": [
                    {
                        "element": "O",
                        "occu": 1
                    }
                ],
                "abc": [
                    0.35101804,
                    0.64898196,
                    0.5
                ],
                "xyz": [
                    -1.3863717473038784,
                    -4.999999969612645e-09,
                    3.600964319999999
                ],
                "label": "O",
                "properties": {}
            },
            {
                "species": [
                    {
                        "element": "O",
                        "occu": 1
                    }
                ],
                "abc": [
                    0.5,
                    0.35101804,
                    0.64898196
                ],
                "xyz": [
                    0.6931858736519394,
                    -1.2006333028115468,
                    3.6009643199999997
                ],
                "label": "O",
                "properties": {}
            },
            {
                "species": [
                    {
                        "element": "O",
                        "occu": 1
                    }
                ],
                "abc": [
                    0.64898196,
                    0.5,
                    0.35101804
                ],
                "xyz": [
                    0.693185873651939,
                    1.2006332928115473,
                    3.600964319999999
                ],
                "label": "O",
                "properties": {}
            },
            {
                "species": [
                    {
                        "element": "O",
                        "occu": 1
                    }
                ],
                "abc": [
                    0.09194028,
                    0.90805972,
                    0.5
                ],
                "xyz": [
                    -3.797254828844589,
                    -4.999999969612645e-09,
                    3.60096432
                ],
                "label": "O",
                "properties": {}
            },
            {
                "species": [
                    {
                        "element": "O",
                        "occu": 1
                    }
                ],
                "abc": [
                    0.5,
                    0.09194028,
                    0.90805972
                ],
                "xyz": [
                    1.8986274144222945,
                    -3.2885195501023508,
                    3.60096432
                ],
                "label": "O",
                "properties": {}
            },
            {
                "species": [
                    {
                        "element": "O",
                        "occu": 1
                    }
                ],
                "abc": [
                    0.90805972,
                    0.5,
                    0.09194028
                ],
                "xyz": [
                    1.8986274144222945,
                    3.2885195401023504,
                    3.60096432
                ],
                "label": "O",
                "properties": {}
            },
            {
                "species": [
                    {
                        "element": "O",
                        "occu": 1
                    }
                ],
                "abc": [
                    0.97125213,
                    0.22046748,
                    0.37068209
                ],
                "xyz": [
                    3.493263973267068,
                    1.20979238645301,
                    3.7507685168048956
                ],
                "label": "O",
                "properties": {}
            },
            {
                "species": [
                    {
                        "element": "O",
                        "occu": 1
                    }
                ],
                "abc": [
                    0.37068209,
                    0.97125213,
                    0.22046748
                ],
                "xyz": [
                    -2.7943428040991005,
                    2.4203595086990557,
                    3.7507685168048956
                ],
                "label": "O",
                "properties": {}
            }
        ]
    },
    "spacegroup": {
        "source": "spglib",
        "symbol": "R32",
        "number": 155,
        "point_group": "32",
        "crystal_system": "trigonal",
        "hall": "R 3 2\""
    },
    "dielectric": {
        "epsilon_ionic": [
            [
                6.89600848,
                0.00010912,
                0.0
            ],
            [
                0.00010912,
                6.89609334,
                4.827e-05
            ],
            [
                0.0,
                4.827e-05,
                8.19164995
            ]
        ],
        "epsilon_ionic_avg": 7.327917256666667,
        "epsilon_ionic_eig": [
            6.895933830481995,
            6.896167987719558,
            8.19164995179845
        ],
        "epsilon_electronic": [
            [
                3.39459329,
                0.0,
                0.0
            ],
            [
                0.0,
                3.39459314,
                4.3e-07
            ],
            [
                -0.0,
                4.3e-07,
                3.09297256
            ]
        ],
        "epsilon_electronic_avg": 3.2940529966666667,
        "epsilon_electronic_eig": [
            3.0929725599993874,
            3.394593140000613,
            3.39459329
        ]
    },
    "phonon": {
        "lowest_freq": -0.06738055974659964,
        "frequency": [
            -0.06738055974659964,
            -0.03863950151454575,
            -0.03863950066065228,
            2.4610633603928913,
            3.552509716494345,
            3.552509764651874,
            6.259332354377865,
            6.678637094450004,
            6.678637570176046,
            7.443642702768643,
            7.501904660812465,
            7.501904872572132,
            7.60114155549482,
            8.652172938025927,
            8.915251394880762,
            8.915251518242464,
            9.67459409783507,
            9.798885690495652,
            9.798885890028648,
            11.03770818427188,
            11.03770869354453,
            11.083387763897692,
            11.376015092265687,
            11.67152193144624,
            11.671522810920672,
            12.261640003250497,
            12.261640561349047,
            13.748071702473448,
            14.450101515110108,
            14.45010213244865,
            14.647833197197023,
            14.76576850139088,
            14.765768683460745,
            15.75164163610914,
            15.75164163610914,
            16.59093497622278,
            17.78429044016829,
            17.78429071501775,
            19.036270513239415,
            19.45226891113325,
            19.455111769365896,
            19.565537515120038,
            19.565538077231135,
            20.363136021372895,
            20.363136501456374,
            21.66611523871325,
            21.666115520720574,
            21.919103348690875,
            28.462448501197912,
            29.11087726967844,
            29.11087764747557,
            29.87139163580288,
            37.27001141720772,
            37.270012105750936,
            38.1845455275535,
            38.1845464236233,
            38.56171080747299,
            39.26066069297432,
            39.73264353774614,
            39.73264396832432
        ]
    },
    "born_effective_charge": {
        "avg_abs_trace": 2.221880666666667,
        "tensors": [
            [
                [
                    3.84739,
                    0.0,
                    -0.0
                ],
                [
                    6e-05,
                    3.84741,
                    2e-05
                ],
                [
                    0.0,
                    -0.0,
                    3.67949
                ]
            ],
            [
                [
                    3.23414,
                    -0.03794,
                    0.05254
                ],
                [
                    -0.03793,
                    3.19034,
                    -0.03032
                ],
                [
                    0.07296,
                    -0.04211,
                    3.14557
                ]
            ],
            [
                [
                    3.23414,
                    0.03794,
                    -0.05254
                ],
                [
                    0.03794,
                    3.19034,
                    -0.03034
                ],
                [
                    -0.07295,
                    -0.04213,
                    3.14557
                ]
            ],
            [
                [
                    3.16844,
                    0.0,
                    -0.0
                ],
                [
                    2e-05,
                    3.25605,
                    0.06066
                ],
                [
                    -1e-05,
                    0.08424,
                    3.14557
                ]
            ],
            [
                [
                    2.82536,
                    -0.20622,
                    0.10839
                ],
                [
                    -0.20622,
                    2.58724,
                    -0.06258
                ],
                [
                    -0.07134,
                    0.04122,
                    1.18866
                ]
            ],
            [
                [
                    2.82536,
                    0.20622,
                    -0.10839
                ],
                [
                    0.2062,
                    2.58723,
                    -0.06257
                ],
                [
                    0.07136,
                    0.04117,
                    1.18866
                ]
            ],
            [
                [
                    2.46819,
                    0.0,
                    -0.0
                ],
                [
                    2e-05,
                    2.9444,
                    0.12515
                ],
                [
                    -3e-05,
                    -0.08239,
                    1.18866
                ]
            ],
            [
                [
                    2.83469,
                    0.0,
                    -0.0
                ],
                [
                    2e-05,
                    2.8347,
                    -0.0
                ],
                [
                    0.0,
                    0.0,
                    1.09883
                ]
            ],
            [
                [
                    -2.46847,
                    0.0941,
                    -0.09216
                ],
                [
                    0.10325,
                    -1.62243,
                    -0.33667
                ],
                [
                    -0.07341,
                    -0.34427,
                    -1.54349
                ]
            ],
            [
                [
                    -1.74848,
                    -0.31238,
                    -0.33765
                ],
                [
                    -0.3216,
                    -2.34247,
                    0.08859
                ],
                [
                    -0.33485,
                    0.10861,
                    -1.54353
                ]
            ],
            [
                [
                    -2.46847,
                    -0.0941,
                    0.09216
                ],
                [
                    -0.1033,
                    -1.62243,
                    -0.33664
                ],
                [
                    0.07337,
                    -0.34429,
                    -1.54353
                ]
            ],
            [
                [
                    -1.91942,
                    0.42026,
                    0.24549
                ],
                [
                    0.4111,
                    -2.17149,
                    0.24809
                ],
                [
                    0.26148,
                    0.23568,
                    -1.54353
                ]
            ],
            [
                [
                    -2.58916,
                    -0.0,
                    -0.0
                ],
                [
                    -0.00011,
                    -1.41106,
                    -0.25651
                ],
                [
                    -3e-05,
                    -0.20247,
                    -1.43196
                ]
            ],
            [
                [
                    -1.70553,
                    0.51009,
                    0.22215
                ],
                [
                    0.51006,
                    -2.2946,
                    0.12826
                ],
                [
                    0.17536,
                    0.10121,
                    -1.43196
                ]
            ],
            [
                [
                    -1.70553,
                    -0.51009,
                    -0.22215
                ],
                [
                    -0.51016,
                    -2.2946,
                    0.12824
                ],
                [
                    -0.17533,
                    0.10126,
                    -1.43196
                ]
            ],
            [
                [
                    -2.49987,
                    0.0,
                    -0.0
                ],
                [
                    -4e-05,
                    -1.60995,
                    -0.11853
                ],
                [
                    3e-05,
                    -0.05595,
                    -1.40802
                ]
            ],
            [
                [
                    -1.83244,
                    0.38535,
                    0.10266
                ],
                [
                    0.38539,
                    -2.27739,
                    0.05926
                ],
                [
                    0.04844,
                    0.028,
                    -1.40802
                ]
            ],
            [
                [
                    -1.83244,
                    -0.38535,
                    -0.10266
                ],
                [
                    -0.38529,
                    -2.27738,
                    0.05927
                ],
                [
                    -0.04847,
                    0.02795,
                    -1.40802
                ]
            ],
            [
                [
                    -1.74848,
                    0.31238,
                    0.33765
                ],
                [
                    0.32162,
                    -2.34239,
                    0.08843
                ],
                [
                    0.33485,
                    0.10856,
                    -1.54349
                ]
            ],
            [
                [
                    -1.91942,
                    -0.42026,
                    -0.24549
                ],
                [
                    -0.41104,
                    -2.17151,
                    0.24819
                ],
                [
                    -0.26145,
                    0.23571,
                    -1.54349
                ]
            ]
        ]
    },
    "band_gap": 5.400799999999999,
    "is_direct": false,
    "formula": "YAl3(BO3)4"
}