{
    "mp_id": "mp-6481",
    "nelements": 4,
    "nsites": 28,
    "elements": [
        "Na",
        "O",
        "Si",
        "Zn"
    ],
    "structure": {
        "@module": "pymatgen.core.structure",
        "@class": "Structure",
        "charge": null,
        "lattice": {
            "matrix": [
                [
                    6.35267192,
                    0.0,
                    0.00048244
                ],
                [
                    0.0,
                    8.56441066,
                    0.0
                ],
                [
                    -1.58548397,
                    0.0,
                    6.43735695
                ]
            ],
            "a": 6.352671938318934,
            "b": 8.56441066,
            "c": 6.629730305286955,
            "alpha": 90.0,
            "beta": 103.83188421396355,
            "gamma": 90.0,
            "volume": 350.24312954743624
        },
        "sites": [
            {
                "species": [
                    {
                        "element": "Na",
                        "occu": 1
                    }
                ],
                "abc": [
                    0.59136524,
                    0.36699936,
                    0.46885492
                ],
                "xyz": [
                    3.0133873946964282,
                    3.1431332309971776,
                    3.0184717760500797
                ],
                "label": "Na",
                "properties": {}
            },
            {
                "species": [
                    {
                        "element": "Na",
                        "occu": 1
                    }
                ],
                "abc": [
                    0.40863476,
                    0.86699936,
                    0.53114508
                ],
                "xyz": [
                    1.7538005553035712,
                    7.425338560997178,
                    3.4193676139499205
                ],
                "label": "Na",
                "properties": {}
            },
            {
                "species": [
                    {
                        "element": "Na",
                        "occu": 1
                    }
                ],
                "abc": [
                    0.83220426,
                    0.80825931,
                    0.22054377
                ],
                "xyz": [
                    4.937052022188012,
                    6.922264650608244,
                    1.420120459211896
                ],
                "label": "Na",
                "properties": {}
            },
            {
                "species": [
                    {
                        "element": "Na",
                        "occu": 1
                    }
                ],
                "abc": [
                    0.16779574,
                    0.30825931,
                    0.77945623
                ],
                "xyz": [
                    -0.16986407218801247,
                    2.6400593206082448,
                    5.017718930788104
                ],
                "label": "Na",
                "properties": {}
            },
            {
                "species": [
                    {
                        "element": "Zn",
                        "occu": 1
                    }
                ],
                "abc": [
                    0.03401864,
                    0.49772728,
                    0.39579404
                ],
                "xyz": [
                    -0.4114158467569501,
                    4.262740822604805,
                    2.5478839261152597
                ],
                "label": "Zn",
                "properties": {}
            },
            {
                "species": [
                    {
                        "element": "Zn",
                        "occu": 1
                    }
                ],
                "abc": [
                    0.96598136,
                    0.99772728,
                    0.60420596
                ],
                "xyz": [
                    5.178603796756949,
                    8.544946152604805,
                    3.889955463884741
                ],
                "label": "Zn",
                "properties": {}
            },
            {
                "species": [
                    {
                        "element": "Si",
                        "occu": 1
                    }
                ],
                "abc": [
                    0.24654701,
                    0.68439159,
                    0.108354
                ],
                "xyz": [
                    1.394438737301579,
                    5.86141062901035,
                    0.6976323190998044
                ],
                "label": "Si",
                "properties": {}
            },
            {
                "species": [
                    {
                        "element": "Si",
                        "occu": 1
                    }
                ],
                "abc": [
                    0.75345299,
                    0.18439159,
                    0.891646
                ],
                "xyz": [
                    3.3727492126984204,
                    1.5792052990103493,
                    5.740207070900196
                ],
                "label": "Si",
                "properties": {}
            },
            {
                "species": [
                    {
                        "element": "Si",
                        "occu": 1
                    }
                ],
                "abc": [
                    0.40947985,
                    0.00261113,
                    0.01299899
                ],
                "xyz": [
                    2.5806814546296213,
                    0.0223627896066458,
                    0.0838766880783145
                ],
                "label": "Si",
                "properties": {}
            },
            {
                "species": [
                    {
                        "element": "Si",
                        "occu": 1
                    }
                ],
                "abc": [
                    0.59052015,
                    0.50261113,
                    0.98700101
                ],
                "xyz": [
                    2.186506495370378,
                    4.304568119606646,
                    6.353962701921685
                ],
                "label": "Si",
                "properties": {}
            },
            {
                "species": [
                    {
                        "element": "Si",
                        "occu": 1
                    }
                ],
                "abc": [
                    0.14932164,
                    0.17036012,
                    0.26875296
                ],
                "xyz": [
                    0.5224878795062976,
                    1.4590340277668792,
                    1.7301307736210736
                ],
                "label": "Si",
                "properties": {}
            },
            {
                "species": [
                    {
                        "element": "Si",
                        "occu": 1
                    }
                ],
                "abc": [
                    0.85067836,
                    0.67036012,
                    0.73124704
                ],
                "xyz": [
                    4.2447000704937015,
                    5.741239357766879,
                    4.707708616378926
                ],
                "label": "Si",
                "properties": {}
            },
            {
                "species": [
                    {
                        "element": "O",
                        "occu": 1
                    }
                ],
                "abc": [
                    0.42462579,
                    0.82701062,
                    0.11868717
                ],
                "xyz": [
                    2.5093317271611517,
                    7.08285856986121,
                    0.764236535141459
                ],
                "label": "O",
                "properties": {}
            },
            {
                "species": [
                    {
                        "element": "O",
                        "occu": 1
                    }
                ],
                "abc": [
                    0.57537421,
                    0.32701062,
                    0.88131283
                ],
                "xyz": [
                    2.2578562228388477,
                    2.800653239861209,
                    5.673602854858541
                ],
                "label": "O",
                "properties": {}
            },
            {
                "species": [
                    {
                        "element": "O",
                        "occu": 1
                    }
                ],
                "abc": [
                    0.21226318,
                    0.66146996,
                    0.33798966
                ],
                "xyz": [
                    0.8125611552801553,
                    5.665100376693774,
                    2.1758624910776962
                ],
                "label": "O",
                "properties": {}
            },
            {
                "species": [
                    {
                        "element": "O",
                        "occu": 1
                    }
                ],
                "abc": [
                    0.78773682,
                    0.16146996,
                    0.66201034
                ],
                "xyz": [
                    3.954626794719845,
                    1.3828950466937735,
                    4.2619768989223035
                ],
                "label": "O",
                "properties": {}
            },
            {
                "species": [
                    {
                        "element": "O",
                        "occu": 1
                    }
                ],
                "abc": [
                    0.98073456,
                    0.2343383,
                    0.05254688
                ],
                "xyz": [
                    6.146972664372041,
                    2.006969434566278,
                    0.33873616874994233
                ],
                "label": "O",
                "properties": {}
            },
            {
                "species": [
                    {
                        "element": "O",
                        "occu": 1
                    }
                ],
                "abc": [
                    0.01926544,
                    0.7343383,
                    0.94745312
                ],
                "xyz": [
                    -1.3797847143720419,
                    6.289174764566278,
                    6.099103221250058
                ],
                "label": "O",
                "properties": {}
            },
            {
                "species": [
                    {
                        "element": "O",
                        "occu": 1
                    }
                ],
                "abc": [
                    0.06420345,
                    0.01235527,
                    0.35419822
                ],
                "xyz": [
                    -0.15371214603040956,
                    0.1058156060951782,
                    2.280131347507047
                ],
                "label": "O",
                "properties": {}
            },
            {
                "species": [
                    {
                        "element": "O",
                        "occu": 1
                    }
                ],
                "abc": [
                    0.93579655,
                    0.51235527,
                    0.64580178
                ],
                "xyz": [
                    4.920900096030408,
                    4.388020936095178,
                    4.157708042492953
                ],
                "label": "O",
                "properties": {}
            },
            {
                "species": [
                    {
                        "element": "O",
                        "occu": 1
                    }
                ],
                "abc": [
                    0.20786568,
                    0.31360591,
                    0.43123679
                ],
                "xyz": [
                    0.6367834506484493,
                    2.6858497986430003,
                    2.7761254299208495
                ],
                "label": "O",
                "properties": {}
            },
            {
                "species": [
                    {
                        "element": "O",
                        "occu": 1
                    }
                ],
                "abc": [
                    0.79213432,
                    0.81360591,
                    0.56876321
                ],
                "xyz": [
                    4.13040449935155,
                    6.968055128643001,
                    3.66171396007915
                ],
                "label": "O",
                "properties": {}
            },
            {
                "species": [
                    {
                        "element": "O",
                        "occu": 1
                    }
                ],
                "abc": [
                    0.75573754,
                    0.51780997,
                    0.20819516
                ],
                "xyz": [
                    4.4708625604362915,
                    4.43473722692228,
                    1.3405911582011596
                ],
                "label": "O",
                "properties": {}
            },
            {
                "species": [
                    {
                        "element": "O",
                        "occu": 1
                    }
                ],
                "abc": [
                    0.24426246,
                    0.01780997,
                    0.79180484
                ],
                "xyz": [
                    0.29632538956370813,
                    0.15253189692228022,
                    5.09724823179884
                ],
                "label": "O",
                "properties": {}
            },
            {
                "species": [
                    {
                        "element": "O",
                        "occu": 1
                    }
                ],
                "abc": [
                    0.62638432,
                    0.62820398,
                    0.81023311
                ],
                "xyz": [
                    2.694602472924047,
                    5.380196862966427,
                    5.216061934629955
                ],
                "label": "O",
                "properties": {}
            },
            {
                "species": [
                    {
                        "element": "O",
                        "occu": 1
                    }
                ],
                "abc": [
                    0.37361568,
                    0.12820398,
                    0.18976689
                ],
                "xyz": [
                    2.072585477075952,
                    1.0979915329664267,
                    1.2217774553700447
                ],
                "label": "O",
                "properties": {}
            },
            {
                "species": [
                    {
                        "element": "O",
                        "occu": 1
                    }
                ],
                "abc": [
                    0.34066384,
                    0.52956821,
                    0.01120909
                ],
                "xyz": [
                    2.146353778014085,
                    4.5354396229211185,
                    0.0723212632776451
                ],
                "label": "O",
                "properties": {}
            },
            {
                "species": [
                    {
                        "element": "O",
                        "occu": 1
                    }
                ],
                "abc": [
                    0.65933616,
                    0.02956821,
                    0.98879091
                ],
                "xyz": [
                    2.620834171985914,
                    0.2532342929211186,
                    6.365518126722354
                ],
                "label": "O",
                "properties": {}
            }
        ]
    },
    "spacegroup": {
        "source": "spglib",
        "symbol": "P2_1",
        "number": 4,
        "point_group": "2",
        "crystal_system": "monoclinic",
        "hall": "P 2yb"
    },
    "dielectric": {
        "epsilon_ionic": [
            [
                4.00615862,
                6.39e-06,
                -0.62083355
            ],
            [
                6.39e-06,
                4.63502688,
                -0.00019154
            ],
            [
                -0.62083355,
                -0.00019154,
                4.65535056
            ]
        ],
        "epsilon_ionic_avg": 4.432178686666666,
        "epsilon_ionic_eig": [
            3.6301856406437096,
            5.031323601108178,
            4.635026818248112
        ],
        "epsilon_electronic": [
            [
                2.57034933,
                0.0,
                -0.04332465
            ],
            [
                0.0,
                2.57985097,
                0.0
            ],
            [
                -0.04332365,
                0.0,
                2.55490364
            ]
        ],
        "epsilon_electronic_avg": 2.56836798,
        "epsilon_electronic_eig": [
            2.6066335788357273,
            2.5186193911642727,
            2.57985097
        ]
    },
    "phonon": {
        "lowest_freq": -0.1373010219825158,
        "frequency": [
            -0.1373010219825158,
            -0.08110167019143635,
            -0.06510055238734237,
            2.3003935420372823,
            2.451364186310763,
            2.478800639088349,
            3.1243092874850227,
            3.4703816781374752,
            3.51403613881091,
            3.813906286650346,
            4.0222490304934055,
            4.180027465107673,
            4.258598216116468,
            4.31668252460982,
            4.33350580162596,
            4.511621639360828,
            4.531994088246589,
            4.64820268571954,
            4.685253722300186,
            5.0007452502456395,
            5.1378861412390515,
            5.289043520738784,
            5.381478730707477,
            5.498481253763442,
            5.639047253769711,
            5.72323675706673,
            5.878369954099289,
            5.977151993768342,
            6.255667152933851,
            6.379658042368002,
            6.586192835406398,
            6.91597733275646,
            6.951112844056104,
            7.003383590710576,
            8.040386073987627,
            8.224041676245676,
            8.957734114999395,
            9.453920592896345,
            9.470338738411918,
            9.818724777357067,
            10.20953008701378,
            10.496777372051543,
            10.667038706618014,
            10.925152412805478,
            11.268710282885703,
            11.69249864946651,
            11.752642631460882,
            12.03504300967667,
            12.421959211158226,
            12.726741829147734,
            12.919393225481386,
            12.95541173847327,
            13.329868597723134,
            13.73706049135723,
            14.672319603776815,
            14.718246767289427,
            15.25172045110584,
            15.26333783278451,
            15.92418463103785,
            16.478940985805842,
            17.876297963968995,
            18.30460365464517,
            19.758138264934583,
            20.775371658584138,
            21.42283224842597,
            22.028776178499523,
            22.823895191309642,
            23.2802762824342,
            27.370323987451386,
            27.82507471420978,
            28.23821863104245,
            28.354164443605114,
            28.398609804696235,
            29.421732484381526,
            29.557901910068036,
            29.577181947208782,
            30.071229788703036,
            30.53604770041109,
            30.94236956295504,
            31.020989682634443,
            31.06761093426198,
            31.34266501166725,
            31.78039186183268,
            32.07659514472763
        ]
    },
    "born_effective_charge": {
        "avg_abs_trace": 1.8774266666666668,
        "tensors": [
            [
                [
                    1.12372,
                    0.0954,
                    0.06417
                ],
                [
                    0.08108,
                    1.06676,
                    -0.01368
                ],
                [
                    0.06893,
                    -0.04907,
                    1.20293
                ]
            ],
            [
                [
                    1.12372,
                    -0.09541,
                    0.06418
                ],
                [
                    -0.08108,
                    1.06676,
                    0.01368
                ],
                [
                    0.06894,
                    0.04909,
                    1.20293
                ]
            ],
            [
                [
                    1.05798,
                    -0.06129,
                    0.03629
                ],
                [
                    -0.0212,
                    1.12059,
                    0.01453
                ],
                [
                    -0.00103,
                    0.0537,
                    1.07157
                ]
            ],
            [
                [
                    1.05797,
                    0.06127,
                    0.03629
                ],
                [
                    0.0212,
                    1.12059,
                    -0.01453
                ],
                [
                    -0.00103,
                    -0.05367,
                    1.07157
                ]
            ],
            [
                [
                    1.89579,
                    0.00492,
                    -0.08312
                ],
                [
                    -0.20394,
                    1.92744,
                    0.03146
                ],
                [
                    -0.16523,
                    -0.09551,
                    1.99607
                ]
            ],
            [
                [
                    1.89574,
                    -0.00504,
                    -0.08329
                ],
                [
                    0.20394,
                    1.92744,
                    -0.03146
                ],
                [
                    -0.16529,
                    0.09548,
                    1.99603
                ]
            ],
            [
                [
                    3.14927,
                    -0.40057,
                    -0.30126
                ],
                [
                    0.30892,
                    3.01877,
                    -0.06306
                ],
                [
                    0.10013,
                    -0.11091,
                    2.87824
                ]
            ],
            [
                [
                    3.14929,
                    0.40056,
                    -0.30129
                ],
                [
                    -0.30892,
                    3.01877,
                    0.06306
                ],
                [
                    0.10022,
                    0.11088,
                    2.87785
                ]
            ],
            [
                [
                    3.21635,
                    -0.03702,
                    -0.16869
                ],
                [
                    0.30497,
                    3.19257,
                    -0.13422
                ],
                [
                    -0.09347,
                    0.04958,
                    2.7961
                ]
            ],
            [
                [
                    3.21632,
                    0.03703,
                    -0.16871
                ],
                [
                    -0.30497,
                    3.19257,
                    0.13422
                ],
                [
                    -0.09349,
                    -0.04953,
                    2.7961
                ]
            ],
            [
                [
                    2.76873,
                    -0.09755,
                    0.0168
                ],
                [
                    -0.13819,
                    2.93903,
                    0.28225
                ],
                [
                    -0.30677,
                    -0.29073,
                    3.00419
                ]
            ],
            [
                [
                    2.76875,
                    0.09756,
                    0.01674
                ],
                [
                    0.13819,
                    2.93903,
                    -0.28225
                ],
                [
                    -0.30681,
                    0.29075,
                    3.00438
                ]
            ],
            [
                [
                    -1.47578,
                    -0.32418,
                    0.08589
                ],
                [
                    -0.5505,
                    -2.50074,
                    0.37134
                ],
                [
                    0.01621,
                    0.26685,
                    -1.18183
                ]
            ],
            [
                [
                    -1.47579,
                    0.32422,
                    0.08587
                ],
                [
                    0.5505,
                    -2.50074,
                    -0.37134
                ],
                [
                    0.01615,
                    -0.26674,
                    -1.18174
                ]
            ],
            [
                [
                    -1.54242,
                    -0.24559,
                    0.39092
                ],
                [
                    -0.31835,
                    -1.48787,
                    0.26917
                ],
                [
                    0.30652,
                    0.15523,
                    -1.72629
                ]
            ],
            [
                [
                    -1.54249,
                    0.24553,
                    0.39082
                ],
                [
                    0.31835,
                    -1.48787,
                    -0.26917
                ],
                [
                    0.30652,
                    -0.15541,
                    -1.72474
                ]
            ],
            [
                [
                    -1.70504,
                    -5e-05,
                    -0.74878
                ],
                [
                    0.09539,
                    -1.18783,
                    0.06941
                ],
                [
                    -0.69891,
                    0.09993,
                    -2.10066
                ]
            ],
            [
                [
                    -1.70503,
                    6e-05,
                    -0.74876
                ],
                [
                    -0.09539,
                    -1.18783,
                    -0.06941
                ],
                [
                    -0.69885,
                    -0.09998,
                    -2.10072
                ]
            ],
            [
                [
                    -1.35881,
                    -0.25452,
                    0.29108
                ],
                [
                    -0.2793,
                    -1.70299,
                    0.21766
                ],
                [
                    0.52286,
                    0.41045,
                    -1.75369
                ]
            ],
            [
                [
                    -1.35882,
                    0.25456,
                    0.29133
                ],
                [
                    0.2793,
                    -1.70299,
                    -0.21766
                ],
                [
                    0.52321,
                    -0.41119,
                    -1.75349
                ]
            ],
            [
                [
                    -1.24494,
                    0.15024,
                    -0.01306
                ],
                [
                    0.19312,
                    -2.06463,
                    -0.36328
                ],
                [
                    0.00415,
                    -0.23782,
                    -1.47906
                ]
            ],
            [
                [
                    -1.24489,
                    -0.15017,
                    -0.01321
                ],
                [
                    -0.19312,
                    -2.06463,
                    0.36328
                ],
                [
                    0.00402,
                    0.23853,
                    -1.47945
                ]
            ],
            [
                [
                    -1.61349,
                    -0.0262,
                    -0.4924
                ],
                [
                    0.04292,
                    -1.20915,
                    -0.03935
                ],
                [
                    -0.48732,
                    0.01415,
                    -1.95861
                ]
            ],
            [
                [
                    -1.61364,
                    0.02632,
                    -0.49237
                ],
                [
                    -0.04292,
                    -1.20915,
                    0.03935
                ],
                [
                    -0.48743,
                    -0.01432,
                    -1.95826
                ]
            ],
            [
                [
                    -1.96988,
                    -0.42024,
                    0.60428
                ],
                [
                    -0.39492,
                    -1.50379,
                    0.4707
                ],
                [
                    0.5706,
                    0.41755,
                    -1.62927
                ]
            ],
            [
                [
                    -1.97003,
                    0.42025,
                    0.60421
                ],
                [
                    0.39492,
                    -1.50379,
                    -0.4707
                ],
                [
                    0.57036,
                    -0.41743,
                    -1.62905
                ]
            ],
            [
                [
                    -2.30132,
                    0.64252,
                    0.31803
                ],
                [
                    0.5546,
                    -1.60816,
                    -0.27588
                ],
                [
                    0.16337,
                    -0.19444,
                    -1.12064
                ]
            ],
            [
                [
                    -2.30127,
                    -0.64261,
                    0.31802
                ],
                [
                    -0.5546,
                    -1.60816,
                    0.27588
                ],
                [
                    0.16344,
                    0.19456,
                    -1.12047
                ]
            ]
        ]
    },
    "band_gap": 4.2211,
    "is_direct": false,
    "formula": "Na2ZnSi3O8"
}