{
    "mp_id": "mp-647813",
    "nelements": 3,
    "nsites": 28,
    "elements": [
        "Cr",
        "Cs",
        "O"
    ],
    "structure": {
        "@module": "pymatgen.core.structure",
        "@class": "Structure",
        "charge": null,
        "lattice": {
            "matrix": [
                [
                    8.37927705,
                    0.0,
                    0.0
                ],
                [
                    0.0,
                    6.22950767,
                    0.0
                ],
                [
                    0.0,
                    0.0,
                    11.12170669
                ]
            ],
            "a": 8.37927705,
            "b": 6.22950767,
            "c": 11.12170669,
            "alpha": 90.0,
            "beta": 90.0,
            "gamma": 90.0,
            "volume": 580.5394167704575
        },
        "sites": [
            {
                "species": [
                    {
                        "element": "Cs",
                        "occu": 1
                    }
                ],
                "abc": [
                    0.01538854,
                    0.25,
                    0.19426719
                ],
                "xyz": [
                    0.128944840055007,
                    1.5573769175,
                    2.160582706670501
                ],
                "label": "Cs",
                "properties": {}
            },
            {
                "species": [
                    {
                        "element": "Cs",
                        "occu": 1
                    }
                ],
                "abc": [
                    0.16784775,
                    0.75,
                    0.41129806
                ],
                "xyz": [
                    1.4064427994691375,
                    4.6721307525,
                    4.5743363854860215
                ],
                "label": "Cs",
                "properties": {}
            },
            {
                "species": [
                    {
                        "element": "Cs",
                        "occu": 1
                    }
                ],
                "abc": [
                    0.83215225,
                    0.25,
                    0.58870194
                ],
                "xyz": [
                    6.972834250530863,
                    1.5573769175,
                    6.547370304513978
                ],
                "label": "Cs",
                "properties": {}
            },
            {
                "species": [
                    {
                        "element": "Cs",
                        "occu": 1
                    }
                ],
                "abc": [
                    0.66784775,
                    0.75,
                    0.08870194
                ],
                "xyz": [
                    5.596081324469138,
                    4.6721307525,
                    0.9865169595139787
                ],
                "label": "Cs",
                "properties": {}
            },
            {
                "species": [
                    {
                        "element": "Cs",
                        "occu": 1
                    }
                ],
                "abc": [
                    0.48461146,
                    0.75,
                    0.69426719
                ],
                "xyz": [
                    4.060693684944993,
                    4.6721307525,
                    7.721436051670501
                ],
                "label": "Cs",
                "properties": {}
            },
            {
                "species": [
                    {
                        "element": "Cs",
                        "occu": 1
                    }
                ],
                "abc": [
                    0.98461146,
                    0.75,
                    0.80573281
                ],
                "xyz": [
                    8.250332209944993,
                    4.6721307525,
                    8.961123983329498
                ],
                "label": "Cs",
                "properties": {}
            },
            {
                "species": [
                    {
                        "element": "Cs",
                        "occu": 1
                    }
                ],
                "abc": [
                    0.51538854,
                    0.25,
                    0.30573281
                ],
                "xyz": [
                    4.318583365055008,
                    1.5573769175,
                    3.400270638329499
                ],
                "label": "Cs",
                "properties": {}
            },
            {
                "species": [
                    {
                        "element": "Cs",
                        "occu": 1
                    }
                ],
                "abc": [
                    0.33215225,
                    0.25,
                    0.91129806
                ],
                "xyz": [
                    2.7831957255308626,
                    1.5573769175,
                    10.135189730486022
                ],
                "label": "Cs",
                "properties": {}
            },
            {
                "species": [
                    {
                        "element": "Cr",
                        "occu": 1
                    }
                ],
                "abc": [
                    0.73480607,
                    0.75,
                    0.42037198
                ],
                "xyz": [
                    6.157143638551694,
                    4.6721307525,
                    4.675253862254546
                ],
                "label": "Cr",
                "properties": {}
            },
            {
                "species": [
                    {
                        "element": "Cr",
                        "occu": 1
                    }
                ],
                "abc": [
                    0.23480607,
                    0.75,
                    0.07962802
                ],
                "xyz": [
                    1.9675051135516937,
                    4.6721307525,
                    0.8855994827454537
                ],
                "label": "Cr",
                "properties": {}
            },
            {
                "species": [
                    {
                        "element": "Cr",
                        "occu": 1
                    }
                ],
                "abc": [
                    0.26519393,
                    0.25,
                    0.57962802
                ],
                "xyz": [
                    2.222133411448307,
                    1.5573769175,
                    6.446452827745454
                ],
                "label": "Cr",
                "properties": {}
            },
            {
                "species": [
                    {
                        "element": "Cr",
                        "occu": 1
                    }
                ],
                "abc": [
                    0.76519393,
                    0.25,
                    0.92037198
                ],
                "xyz": [
                    6.411771936448307,
                    1.5573769175,
                    10.236107207254546
                ],
                "label": "Cr",
                "properties": {}
            },
            {
                "species": [
                    {
                        "element": "O",
                        "occu": 1
                    }
                ],
                "abc": [
                    0.19422148,
                    0.46797451,
                    0.6461157
                ],
                "xyz": [
                    1.6274355899810342,
                    2.915250799409492,
                    7.185909303204032
                ],
                "label": "O",
                "properties": {}
            },
            {
                "species": [
                    {
                        "element": "O",
                        "occu": 1
                    }
                ],
                "abc": [
                    0.03790468,
                    0.75,
                    0.087165
                ],
                "xyz": [
                    0.31761381521159404,
                    4.6721307525,
                    0.9694235636338501
                ],
                "label": "O",
                "properties": {}
            },
            {
                "species": [
                    {
                        "element": "O",
                        "occu": 1
                    }
                ],
                "abc": [
                    0.80577852,
                    0.96797451,
                    0.3538843
                ],
                "xyz": [
                    6.751841460018967,
                    6.030004634409492,
                    3.935797386795967
                ],
                "label": "O",
                "properties": {}
            },
            {
                "species": [
                    {
                        "element": "O",
                        "occu": 1
                    }
                ],
                "abc": [
                    0.29236151,
                    0.75,
                    0.936782
                ],
                "xyz": [
                    2.449778091046346,
                    4.6721307525,
                    10.41861463647158
                ],
                "label": "O",
                "properties": {}
            },
            {
                "species": [
                    {
                        "element": "O",
                        "occu": 1
                    }
                ],
                "abc": [
                    0.80577852,
                    0.53202549,
                    0.3538843
                ],
                "xyz": [
                    6.751841460018967,
                    3.3142568705905084,
                    3.935797386795967
                ],
                "label": "O",
                "properties": {}
            },
            {
                "species": [
                    {
                        "element": "O",
                        "occu": 1
                    }
                ],
                "abc": [
                    0.20763849,
                    0.25,
                    0.436782
                ],
                "xyz": [
                    1.7398604339536548,
                    1.5573769175,
                    4.85776129147158
                ],
                "label": "O",
                "properties": {}
            },
            {
                "species": [
                    {
                        "element": "O",
                        "occu": 1
                    }
                ],
                "abc": [
                    0.69422148,
                    0.46797451,
                    0.8538843
                ],
                "xyz": [
                    5.817074114981034,
                    2.915250799409492,
                    9.496650731795967
                ],
                "label": "O",
                "properties": {}
            },
            {
                "species": [
                    {
                        "element": "O",
                        "occu": 1
                    }
                ],
                "abc": [
                    0.96209532,
                    0.25,
                    0.912835
                ],
                "xyz": [
                    8.061663234788407,
                    1.5573769175,
                    10.15228312636615
                ],
                "label": "O",
                "properties": {}
            },
            {
                "species": [
                    {
                        "element": "O",
                        "occu": 1
                    }
                ],
                "abc": [
                    0.70763849,
                    0.25,
                    0.063218
                ],
                "xyz": [
                    5.929498958953655,
                    1.5573769175,
                    0.70309205352842
                ],
                "label": "O",
                "properties": {}
            },
            {
                "species": [
                    {
                        "element": "O",
                        "occu": 1
                    }
                ],
                "abc": [
                    0.79236151,
                    0.75,
                    0.563218
                ],
                "xyz": [
                    6.639416616046346,
                    4.6721307525,
                    6.26394539852842
                ],
                "label": "O",
                "properties": {}
            },
            {
                "species": [
                    {
                        "element": "O",
                        "occu": 1
                    }
                ],
                "abc": [
                    0.69422148,
                    0.03202549,
                    0.8538843
                ],
                "xyz": [
                    5.817074114981034,
                    0.19950303559050828,
                    9.496650731795967
                ],
                "label": "O",
                "properties": {}
            },
            {
                "species": [
                    {
                        "element": "O",
                        "occu": 1
                    }
                ],
                "abc": [
                    0.19422148,
                    0.03202549,
                    0.6461157
                ],
                "xyz": [
                    1.6274355899810342,
                    0.19950303559050828,
                    7.185909303204032
                ],
                "label": "O",
                "properties": {}
            },
            {
                "species": [
                    {
                        "element": "O",
                        "occu": 1
                    }
                ],
                "abc": [
                    0.46209532,
                    0.25,
                    0.587165
                ],
                "xyz": [
                    3.872024709788406,
                    1.5573769175,
                    6.530276908633851
                ],
                "label": "O",
                "properties": {}
            },
            {
                "species": [
                    {
                        "element": "O",
                        "occu": 1
                    }
                ],
                "abc": [
                    0.30577852,
                    0.53202549,
                    0.1461157
                ],
                "xyz": [
                    2.5622029350189663,
                    3.3142568705905084,
                    1.625055958204033
                ],
                "label": "O",
                "properties": {}
            },
            {
                "species": [
                    {
                        "element": "O",
                        "occu": 1
                    }
                ],
                "abc": [
                    0.53790468,
                    0.75,
                    0.412835
                ],
                "xyz": [
                    4.507252340211594,
                    4.6721307525,
                    4.59142978136615
                ],
                "label": "O",
                "properties": {}
            },
            {
                "species": [
                    {
                        "element": "O",
                        "occu": 1
                    }
                ],
                "abc": [
                    0.30577852,
                    0.96797451,
                    0.1461157
                ],
                "xyz": [
                    2.5622029350189663,
                    6.030004634409492,
                    1.625055958204033
                ],
                "label": "O",
                "properties": {}
            }
        ]
    },
    "spacegroup": {
        "source": "spglib",
        "symbol": "Pnma",
        "number": 62,
        "point_group": "mmm",
        "crystal_system": "orthorhombic",
        "hall": "-P 2ac 2n"
    },
    "dielectric": {
        "epsilon_ionic": [
            [
                4.15804884,
                -2.75e-06,
                -3e-08
            ],
            [
                -2.75e-06,
                5.05825953,
                7.7e-06
            ],
            [
                -3e-08,
                7.7e-06,
                4.01502427
            ]
        ],
        "epsilon_ionic_avg": 4.410444213333332,
        "epsilon_ionic_eig": [
            4.158048839991605,
            5.058259530065233,
            4.015024269943161
        ],
        "epsilon_electronic": [
            [
                3.0037483,
                0.0,
                0.0
            ],
            [
                0.0,
                3.07129822,
                0.0
            ],
            [
                0.0,
                0.0,
                3.00022564
            ]
        ],
        "epsilon_electronic_avg": 3.02509072,
        "epsilon_electronic_eig": [
            3.0037483,
            3.07129822,
            3.00022564
        ]
    },
    "phonon": {
        "lowest_freq": -0.18310972175366408,
        "frequency": [
            -0.18310972175366408,
            -0.1389671855498568,
            -0.07153428446281804,
            0.9605527054701485,
            0.9659615859532945,
            1.0733731674026041,
            1.1037693526066414,
            1.1684693455579336,
            1.4197276769658254,
            1.4823380448107732,
            1.5517820154414463,
            1.5838992157718628,
            1.632728918315466,
            1.6388801036455278,
            1.6516414059551512,
            1.7086004305238944,
            1.8785556783927257,
            1.8845119396475867,
            1.9413996713277706,
            1.9631269110402272,
            2.0128934079811414,
            2.0764208566833138,
            2.1255371771696545,
            2.1382590069818517,
            2.2856304123107467,
            2.3589042764479355,
            2.406681881820066,
            2.447343541829746,
            2.6166482290612505,
            2.7283556295175324,
            2.7811855645099754,
            2.7941245669423034,
            2.8652723966200346,
            2.8801962973486623,
            2.929903156317731,
            2.943277624010394,
            2.9720691761302414,
            2.9970186394993257,
            3.0035547123228117,
            3.082495571602057,
            3.1107343054704484,
            3.1861683860174073,
            3.265678940960194,
            3.2810234833127865,
            3.4187460424702145,
            3.476190952052612,
            3.6160988176973325,
            3.688197445438733,
            9.958066858409364,
            10.009310710651718,
            10.018883468843473,
            10.055409578657335,
            10.06901714549192,
            10.099488562570087,
            10.120295455198736,
            10.210913251616034,
            10.954669966599694,
            10.960134073044575,
            10.960453066879708,
            11.055349772030253,
            11.069102201531258,
            11.071435249926767,
            11.14569696005257,
            11.21227048097397,
            11.236522439691,
            11.335768252285446,
            11.371853099796251,
            11.44999183955506,
            25.70193979286578,
            25.70961779374332,
            25.709986060333556,
            25.71422483396611,
            26.965532229990753,
            27.15537520336708,
            27.167237847491364,
            27.18175233722728,
            27.21457237059547,
            27.226248720530748,
            27.235007296872617,
            27.377241376765912,
            27.642031938694064,
            27.68925713320797,
            28.077997983875793,
            28.300198709106688
        ]
    },
    "born_effective_charge": {
        "avg_abs_trace": 1.5433607142857144,
        "tensors": [
            [
                [
                    1.40816,
                    -0.0,
                    0.02497
                ],
                [
                    -0.00015,
                    1.48168,
                    0.00013
                ],
                [
                    0.01172,
                    0.0,
                    1.53554
                ]
            ],
            [
                [
                    1.45491,
                    0.0,
                    0.05665
                ],
                [
                    0.00011,
                    1.39677,
                    -1e-05
                ],
                [
                    -0.01655,
                    0.0,
                    1.2607
                ]
            ],
            [
                [
                    1.45492,
                    0.0,
                    0.05658
                ],
                [
                    -0.00011,
                    1.39677,
                    1e-05
                ],
                [
                    -0.01645,
                    0.0,
                    1.26058
                ]
            ],
            [
                [
                    1.45491,
                    -0.0,
                    -0.05665
                ],
                [
                    0.00011,
                    1.39677,
                    1e-05
                ],
                [
                    0.01645,
                    0.0,
                    1.26058
                ]
            ],
            [
                [
                    1.40817,
                    0.0,
                    -0.02481
                ],
                [
                    0.00015,
                    1.48168,
                    0.00013
                ],
                [
                    -0.01172,
                    0.0,
                    1.53554
                ]
            ],
            [
                [
                    1.40817,
                    0.0,
                    0.02481
                ],
                [
                    0.00015,
                    1.48168,
                    -0.00013
                ],
                [
                    0.01174,
                    0.0,
                    1.53568
                ]
            ],
            [
                [
                    1.40816,
                    -0.0,
                    -0.02497
                ],
                [
                    -0.00015,
                    1.48168,
                    -0.00013
                ],
                [
                    -0.01174,
                    0.0,
                    1.53568
                ]
            ],
            [
                [
                    1.45492,
                    -0.0,
                    -0.05658
                ],
                [
                    -0.00011,
                    1.39677,
                    -1e-05
                ],
                [
                    0.01655,
                    0.0,
                    1.2607
                ]
            ],
            [
                [
                    2.54538,
                    0.0,
                    -0.03123
                ],
                [
                    0.00116,
                    2.65061,
                    -0.00067
                ],
                [
                    0.03444,
                    0.0,
                    2.47206
                ]
            ],
            [
                [
                    2.54538,
                    0.0,
                    0.03123
                ],
                [
                    0.00116,
                    2.65061,
                    0.00067
                ],
                [
                    -0.03405,
                    0.0,
                    2.47217
                ]
            ],
            [
                [
                    2.54418,
                    0.0,
                    -0.03119
                ],
                [
                    -0.00116,
                    2.65061,
                    0.00067
                ],
                [
                    0.03405,
                    0.0,
                    2.47217
                ]
            ],
            [
                [
                    2.54418,
                    0.0,
                    0.03119
                ],
                [
                    -0.00116,
                    2.65061,
                    -0.00067
                ],
                [
                    -0.03444,
                    0.0,
                    2.47206
                ]
            ],
            [
                [
                    -0.99455,
                    0.50169,
                    0.31153
                ],
                [
                    0.5639,
                    -2.07507,
                    -0.73912
                ],
                [
                    0.25411,
                    -0.68105,
                    -1.08732
                ]
            ],
            [
                [
                    -2.53381,
                    -0.0,
                    0.02865
                ],
                [
                    -0.00716,
                    -0.60515,
                    0.0005
                ],
                [
                    0.06801,
                    0.0,
                    -0.67363
                ]
            ],
            [
                [
                    -0.99447,
                    -0.50075,
                    0.31116
                ],
                [
                    -0.5639,
                    -2.07507,
                    0.73912
                ],
                [
                    0.25403,
                    0.68061,
                    -1.08694
                ]
            ],
            [
                [
                    -0.88561,
                    0.0,
                    0.47718
                ],
                [
                    0.00058,
                    -0.7816,
                    -0.00178
                ],
                [
                    0.4528,
                    0.0,
                    -2.41931
                ]
            ],
            [
                [
                    -0.99447,
                    0.50075,
                    0.31116
                ],
                [
                    0.56112,
                    -2.06725,
                    -0.73572
                ],
                [
                    0.25403,
                    -0.68061,
                    -1.08694
                ]
            ],
            [
                [
                    -0.88446,
                    -0.0,
                    -0.47636
                ],
                [
                    -0.00058,
                    -0.7816,
                    -0.00178
                ],
                [
                    -0.4528,
                    0.0,
                    -2.41931
                ]
            ],
            [
                [
                    -0.99455,
                    0.50169,
                    -0.31153
                ],
                [
                    0.5639,
                    -2.07507,
                    0.73912
                ],
                [
                    -0.25403,
                    0.68061,
                    -1.08694
                ]
            ],
            [
                [
                    -2.53379,
                    0.0,
                    0.02855
                ],
                [
                    0.00716,
                    -0.60515,
                    -0.0005
                ],
                [
                    0.0714,
                    0.0,
                    -0.67367
                ]
            ],
            [
                [
                    -0.88446,
                    0.0,
                    0.47636
                ],
                [
                    -0.00058,
                    -0.7816,
                    0.00178
                ],
                [
                    0.45339,
                    0.0,
                    -2.4216
                ]
            ],
            [
                [
                    -0.88561,
                    0.0,
                    -0.47718
                ],
                [
                    0.00058,
                    -0.7816,
                    0.00178
                ],
                [
                    -0.45339,
                    0.0,
                    -2.4216
                ]
            ],
            [
                [
                    -0.99455,
                    -0.50169,
                    -0.31153
                ],
                [
                    -0.56112,
                    -2.06725,
                    -0.73572
                ],
                [
                    -0.25403,
                    -0.68061,
                    -1.08694
                ]
            ],
            [
                [
                    -0.99455,
                    -0.50169,
                    0.31153
                ],
                [
                    -0.56112,
                    -2.06725,
                    0.73572
                ],
                [
                    0.25411,
                    0.68105,
                    -1.08732
                ]
            ],
            [
                [
                    -2.53379,
                    0.0,
                    -0.02855
                ],
                [
                    0.00716,
                    -0.60515,
                    0.0005
                ],
                [
                    -0.06801,
                    0.0,
                    -0.67363
                ]
            ],
            [
                [
                    -0.99447,
                    0.50075,
                    -0.31116
                ],
                [
                    0.56112,
                    -2.06725,
                    0.73572
                ],
                [
                    -0.25411,
                    0.68105,
                    -1.08732
                ]
            ],
            [
                [
                    -2.53381,
                    -0.0,
                    -0.02865
                ],
                [
                    -0.00716,
                    -0.60515,
                    -0.0005
                ],
                [
                    -0.0714,
                    0.0,
                    -0.67367
                ]
            ],
            [
                [
                    -0.99447,
                    -0.50075,
                    -0.31116
                ],
                [
                    -0.5639,
                    -2.07507,
                    -0.73912
                ],
                [
                    -0.25411,
                    -0.68105,
                    -1.08732
                ]
            ]
        ]
    },
    "band_gap": 3.2121,
    "is_direct": false,
    "formula": "Cs2CrO4"
}