{
    "mp_id": "mp-6730",
    "nelements": 4,
    "nsites": 22,
    "elements": [
        "O",
        "Pt",
        "Sr",
        "Zn"
    ],
    "structure": {
        "@module": "pymatgen.core.structure",
        "@class": "Structure",
        "charge": null,
        "lattice": {
            "matrix": [
                [
                    4.77081949,
                    2.75443386,
                    3.70461672
                ],
                [
                    -4.77081949,
                    2.75443386,
                    3.70461672
                ],
                [
                    0.0,
                    -5.50886773,
                    3.70461672
                ]
            ],
            "a": 6.638660221564432,
            "b": 6.638660221564432,
            "c": 6.638660159154023,
            "alpha": 91.88493463619537,
            "beta": 91.88493463619537,
            "gamma": 91.88493580381902,
            "volume": 292.09213737448533
        },
        "sites": [
            {
                "species": [
                    {
                        "element": "Sr",
                        "occu": 1
                    }
                ],
                "abc": [
                    0.75,
                    0.11449539,
                    0.38550461
                ],
                "xyz": [
                    3.0318777793728486,
                    0.25750146823467013,
                    4.6307709
                ],
                "label": "Sr",
                "properties": {}
            },
            {
                "species": [
                    {
                        "element": "Sr",
                        "occu": 1
                    }
                ],
                "abc": [
                    0.11449539,
                    0.38550461,
                    0.75
                ],
                "xyz": [
                    -1.292936068745698,
                    -2.754433867500001,
                    4.6307709
                ],
                "label": "Sr",
                "properties": {}
            },
            {
                "species": [
                    {
                        "element": "Sr",
                        "occu": 1
                    }
                ],
                "abc": [
                    0.61449539,
                    0.25,
                    0.88550461
                ],
                "xyz": [
                    1.7389417106271512,
                    -2.4969323967653305,
                    6.48307926
                ],
                "label": "Sr",
                "properties": {}
            },
            {
                "species": [
                    {
                        "element": "Sr",
                        "occu": 1
                    }
                ],
                "abc": [
                    0.25,
                    0.88550461,
                    0.61449539
                ],
                "xyz": [
                    -3.0318777793728486,
                    -0.25750147823467007,
                    6.48307926
                ],
                "label": "Sr",
                "properties": {}
            },
            {
                "species": [
                    {
                        "element": "Sr",
                        "occu": 1
                    }
                ],
                "abc": [
                    0.88550461,
                    0.61449539,
                    0.25
                ],
                "xyz": [
                    1.2929360687456977,
                    2.7544338575,
                    6.48307926
                ],
                "label": "Sr",
                "properties": {}
            },
            {
                "species": [
                    {
                        "element": "Sr",
                        "occu": 1
                    }
                ],
                "abc": [
                    0.38550461,
                    0.75,
                    0.11449539
                ],
                "xyz": [
                    -1.7389417106271507,
                    2.49693238676533,
                    4.6307709
                ],
                "label": "Sr",
                "properties": {}
            },
            {
                "species": [
                    {
                        "element": "Zn",
                        "occu": 1
                    }
                ],
                "abc": [
                    0.75,
                    0.75,
                    0.75
                ],
                "xyz": [
                    0.0,
                    -7.500000620552782e-09,
                    8.33538762
                ],
                "label": "Zn",
                "properties": {}
            },
            {
                "species": [
                    {
                        "element": "Zn",
                        "occu": 1
                    }
                ],
                "abc": [
                    0.25,
                    0.25,
                    0.25
                ],
                "xyz": [
                    0.0,
                    -2.5000002068509275e-09,
                    2.77846254
                ],
                "label": "Zn",
                "properties": {}
            },
            {
                "species": [
                    {
                        "element": "Pt",
                        "occu": 1
                    }
                ],
                "abc": [
                    0.5,
                    0.5,
                    0.5
                ],
                "xyz": [
                    0.0,
                    -5.000000413701855e-09,
                    5.55692508
                ],
                "label": "Pt",
                "properties": {}
            },
            {
                "species": [
                    {
                        "element": "Pt",
                        "occu": 1
                    }
                ],
                "abc": [
                    0.0,
                    0.0,
                    0.0
                ],
                "xyz": [
                    0.0,
                    0.0,
                    0.0
                ],
                "label": "Pt",
                "properties": {}
            },
            {
                "species": [
                    {
                        "element": "O",
                        "occu": 1
                    }
                ],
                "abc": [
                    0.09470563,
                    0.96263742,
                    0.28668588
                ],
                "xyz": [
                    -4.140745899722587,
                    1.3330669055770201,
                    4.97911204624171
                ],
                "label": "O",
                "properties": {}
            },
            {
                "species": [
                    {
                        "element": "O",
                        "occu": 1
                    }
                ],
                "abc": [
                    0.96263742,
                    0.28668588,
                    0.09470563
                ],
                "xyz": [
                    3.224842781327514,
                    2.9194576106506176,
                    4.97911204624171
                ],
                "label": "O",
                "properties": {}
            },
            {
                "species": [
                    {
                        "element": "O",
                        "occu": 1
                    }
                ],
                "abc": [
                    0.28668588,
                    0.09470563,
                    0.96263742
                ],
                "xyz": [
                    0.9159031183950727,
                    -4.252524529667928,
                    4.97911204624171
                ],
                "label": "O",
                "properties": {}
            },
            {
                "species": [
                    {
                        "element": "O",
                        "occu": 1
                    }
                ],
                "abc": [
                    0.21331412,
                    0.53736258,
                    0.40529437
                ],
                "xyz": [
                    -1.5459767086724856,
                    -0.16502375565061822,
                    4.282429753758291
                ],
                "label": "O",
                "properties": {}
            },
            {
                "species": [
                    {
                        "element": "O",
                        "occu": 1
                    }
                ],
                "abc": [
                    0.53736258,
                    0.40529437,
                    0.21331412
                ],
                "xyz": [
                    0.6300735902774128,
                    1.4213669494229793,
                    4.282429753758291
                ],
                "label": "O",
                "properties": {}
            },
            {
                "species": [
                    {
                        "element": "O",
                        "occu": 1
                    }
                ],
                "abc": [
                    0.40529437,
                    0.21331412,
                    0.53736258
                ],
                "xyz": [
                    0.9159031183950728,
                    -1.2563432053320724,
                    4.282429753758291
                ],
                "label": "O",
                "properties": {}
            },
            {
                "species": [
                    {
                        "element": "O",
                        "occu": 1
                    }
                ],
                "abc": [
                    0.90529437,
                    0.03736258,
                    0.71331412
                ],
                "xyz": [
                    4.140745899722588,
                    -1.3330669155770214,
                    6.134738113758291
                ],
                "label": "O",
                "properties": {}
            },
            {
                "species": [
                    {
                        "element": "O",
                        "occu": 1
                    }
                ],
                "abc": [
                    0.03736258,
                    0.71331412,
                    0.90529437
                ],
                "xyz": [
                    -3.224842781327515,
                    -2.9194576206506184,
                    6.134738113758291
                ],
                "label": "O",
                "properties": {}
            },
            {
                "species": [
                    {
                        "element": "O",
                        "occu": 1
                    }
                ],
                "abc": [
                    0.71331412,
                    0.90529437,
                    0.03736258
                ],
                "xyz": [
                    -0.9159031183950725,
                    4.2525245196679275,
                    6.13473811375829
                ],
                "label": "O",
                "properties": {}
            },
            {
                "species": [
                    {
                        "element": "O",
                        "occu": 1
                    }
                ],
                "abc": [
                    0.78668588,
                    0.46263742,
                    0.59470563
                ],
                "xyz": [
                    1.5459767086724852,
                    0.1650237456506174,
                    6.83142040624171
                ],
                "label": "O",
                "properties": {}
            },
            {
                "species": [
                    {
                        "element": "O",
                        "occu": 1
                    }
                ],
                "abc": [
                    0.59470563,
                    0.78668588,
                    0.46263742
                ],
                "xyz": [
                    -0.9159031183950721,
                    1.2563431953320712,
                    6.831420406241709
                ],
                "label": "O",
                "properties": {}
            },
            {
                "species": [
                    {
                        "element": "O",
                        "occu": 1
                    }
                ],
                "abc": [
                    0.46263742,
                    0.59470563,
                    0.78668588
                ],
                "xyz": [
                    -0.630073590277413,
                    -1.4213669594229796,
                    6.83142040624171
                ],
                "label": "O",
                "properties": {}
            }
        ]
    },
    "spacegroup": {
        "source": "spglib",
        "symbol": "R-3c",
        "number": 167,
        "point_group": "-3m",
        "crystal_system": "trigonal",
        "hall": "-R 3 2\"c"
    },
    "dielectric": {
        "epsilon_ionic": [
            [
                9.04351268,
                -2e-08,
                -2e-08
            ],
            [
                -2e-08,
                9.04346447,
                3.9e-06
            ],
            [
                -2e-08,
                3.9e-06,
                8.74966621
            ]
        ],
        "epsilon_ionic_avg": 8.945547786666667,
        "epsilon_ionic_eig": [
            9.043512680008302,
            9.04346447004347,
            8.749666209948227
        ],
        "epsilon_electronic": [
            [
                4.41757975,
                -0.0,
                0.0
            ],
            [
                0.0,
                4.41758093,
                -0.0
            ],
            [
                -0.0,
                0.0,
                4.98380258
            ]
        ],
        "epsilon_electronic_avg": 4.606321086666667,
        "epsilon_electronic_eig": [
            4.41757975,
            4.41758093,
            4.98380258
        ]
    },
    "phonon": {
        "lowest_freq": -0.08692495728270118,
        "frequency": [
            -0.08692495728270118,
            -0.03287416949757412,
            -0.03287416511127055,
            3.2226052745607925,
            3.2226055172465466,
            3.4470529767752276,
            3.52975670625811,
            3.5297567616500594,
            3.58679741549196,
            3.6596523401264345,
            3.7458125880214737,
            3.7458129175148964,
            3.779358075589592,
            3.779358101456433,
            3.841452256361663,
            3.841452558565231,
            3.9603530554956508,
            4.416133709054922,
            4.416133866781207,
            4.672865582837578,
            4.987799551898627,
            5.033426255245327,
            5.033426813632638,
            5.082383811333532,
            5.082384099859705,
            5.488219661289338,
            5.4882197280869915,
            5.740973434565057,
            5.799219029165089,
            5.7992194084577315,
            6.085890362368352,
            6.3912601474534805,
            6.39126039601179,
            6.595956252520702,
            6.6753027581241575,
            6.7349680635084725,
            8.192008936412103,
            8.368923783842245,
            8.368923886053768,
            8.983974373059416,
            9.389691580513276,
            9.389692062041586,
            9.459278291924772,
            9.905687055941979,
            9.905687228650939,
            10.81838019314418,
            10.818380249622166,
            10.96879679162959,
            10.968796914177279,
            11.171542371861253,
            11.375283813624609,
            11.375283845852396,
            12.261897234160177,
            13.569964893498156,
            16.29608111721593,
            16.39869995893108,
            16.398700778630626,
            17.305843452438385,
            17.436837301976276,
            17.43683779254715,
            18.22597596742344,
            18.225976704942628,
            18.657437978311634,
            18.657438698775344,
            18.844144694935792,
            19.133607067542155
        ]
    },
    "born_effective_charge": {
        "avg_abs_trace": 2.191514242424242,
        "tensors": [
            [
                [
                    2.86946,
                    0.08259,
                    -0.29647
                ],
                [
                    0.08238,
                    2.77375,
                    -0.1714
                ],
                [
                    -0.24374,
                    -0.14078,
                    2.32172
                ]
            ],
            [
                [
                    2.72619,
                    0.0,
                    -0.0
                ],
                [
                    -0.00012,
                    2.91708,
                    0.3425
                ],
                [
                    -5e-05,
                    0.28147,
                    2.32172
                ]
            ],
            [
                [
                    2.86929,
                    -0.08266,
                    0.29678
                ],
                [
                    -0.08238,
                    2.77375,
                    -0.1714
                ],
                [
                    0.24374,
                    -0.14078,
                    2.32172
                ]
            ],
            [
                [
                    2.86929,
                    0.08266,
                    -0.29678
                ],
                [
                    0.08286,
                    2.7741,
                    -0.1711
                ],
                [
                    -0.24379,
                    -0.14069,
                    2.32172
                ]
            ],
            [
                [
                    2.72624,
                    0.0,
                    0.0
                ],
                [
                    0.00012,
                    2.91708,
                    0.3425
                ],
                [
                    5e-05,
                    0.28147,
                    2.32172
                ]
            ],
            [
                [
                    2.86946,
                    -0.08259,
                    0.29647
                ],
                [
                    -0.08286,
                    2.7741,
                    -0.1711
                ],
                [
                    0.24379,
                    -0.14069,
                    2.32172
                ]
            ],
            [
                [
                    1.40506,
                    0.0,
                    -0.0
                ],
                [
                    -6e-05,
                    1.40502,
                    0.0
                ],
                [
                    -0.0,
                    0.0,
                    3.43952
                ]
            ],
            [
                [
                    1.40497,
                    0.0,
                    -0.0
                ],
                [
                    6e-05,
                    1.40502,
                    0.0
                ],
                [
                    -0.0,
                    0.0,
                    3.43952
                ]
            ],
            [
                [
                    1.69677,
                    -0.02253,
                    -0.0
                ],
                [
                    0.02254,
                    1.69679,
                    0.0
                ],
                [
                    -0.0,
                    0.0,
                    2.62183
                ]
            ],
            [
                [
                    1.69677,
                    0.02253,
                    0.0
                ],
                [
                    -0.02254,
                    1.69679,
                    0.0
                ],
                [
                    -0.0,
                    0.0,
                    2.62183
                ]
            ],
            [
                [
                    -1.63088,
                    0.45125,
                    -0.21489
                ],
                [
                    0.37477,
                    -2.22447,
                    0.48103
                ],
                [
                    -0.30085,
                    0.56941,
                    -2.17106
                ]
            ],
            [
                [
                    -2.43385,
                    0.08884,
                    0.524
                ],
                [
                    0.01222,
                    -1.42168,
                    -0.05434
                ],
                [
                    0.64354,
                    -0.02416,
                    -2.17106
                ]
            ],
            [
                [
                    -1.71868,
                    -0.42524,
                    -0.30913
                ],
                [
                    -0.50193,
                    -2.13693,
                    -0.42671
                ],
                [
                    -0.3427,
                    -0.54524,
                    -2.17106
                ]
            ],
            [
                [
                    -2.43385,
                    -0.08884,
                    -0.524
                ],
                [
                    -0.01235,
                    -1.4217,
                    -0.05444
                ],
                [
                    -0.64363,
                    -0.02442,
                    -2.1711
                ]
            ],
            [
                [
                    -1.63088,
                    -0.45125,
                    0.21489
                ],
                [
                    -0.37453,
                    -2.2249,
                    0.48106
                ],
                [
                    0.30066,
                    0.56961,
                    -2.1711
                ]
            ],
            [
                [
                    -1.71868,
                    0.42524,
                    0.30913
                ],
                [
                    0.50197,
                    -2.13706,
                    -0.42661
                ],
                [
                    0.34296,
                    -0.54518,
                    -2.1711
                ]
            ],
            [
                [
                    -1.63092,
                    0.4514,
                    -0.21497
                ],
                [
                    0.37453,
                    -2.2249,
                    0.48106
                ],
                [
                    -0.30066,
                    0.56961,
                    -2.1711
                ]
            ],
            [
                [
                    -2.43394,
                    0.08907,
                    0.52413
                ],
                [
                    0.01235,
                    -1.4217,
                    -0.05444
                ],
                [
                    0.64363,
                    -0.02442,
                    -2.1711
                ]
            ],
            [
                [
                    -1.71848,
                    -0.4253,
                    -0.30915
                ],
                [
                    -0.50197,
                    -2.13706,
                    -0.42661
                ],
                [
                    -0.34296,
                    -0.54518,
                    -2.1711
                ]
            ],
            [
                [
                    -2.43394,
                    -0.08907,
                    -0.52413
                ],
                [
                    -0.01222,
                    -1.42168,
                    -0.05434
                ],
                [
                    -0.64354,
                    -0.02416,
                    -2.17106
                ]
            ],
            [
                [
                    -1.71848,
                    0.4253,
                    0.30915
                ],
                [
                    0.50193,
                    -2.13693,
                    -0.42671
                ],
                [
                    0.3427,
                    -0.54524,
                    -2.17106
                ]
            ],
            [
                [
                    -1.63092,
                    -0.4514,
                    0.21497
                ],
                [
                    -0.37477,
                    -2.22447,
                    0.48103
                ],
                [
                    0.30085,
                    0.56941,
                    -2.17106
                ]
            ]
        ]
    },
    "band_gap": 3.1167000000000002,
    "is_direct": false,
    "formula": "Sr3ZnPtO6"
}