{
    "mp_id": "mp-6655",
    "nelements": 4,
    "nsites": 24,
    "elements": [
        "Be",
        "O",
        "Si",
        "Y"
    ],
    "structure": {
        "@module": "pymatgen.core.structure",
        "@class": "Structure",
        "charge": null,
        "lattice": {
            "matrix": [
                [
                    7.26890293,
                    0.0,
                    0.0
                ],
                [
                    0.0,
                    7.26890293,
                    0.0
                ],
                [
                    0.0,
                    0.0,
                    4.74093814
                ]
            ],
            "a": 7.26890293,
            "b": 7.26890293,
            "c": 4.74093814,
            "alpha": 90.0,
            "beta": 90.0,
            "gamma": 90.0,
            "volume": 250.49671053540544
        },
        "sites": [
            {
                "species": [
                    {
                        "element": "Y",
                        "occu": 1
                    }
                ],
                "abc": [
                    0.34126705,
                    0.15873295,
                    0.50692727
                ],
                "xyz": [
                    2.4806370596574565,
                    1.1538144053425436,
                    2.403310828549078
                ],
                "label": "Y",
                "properties": {}
            },
            {
                "species": [
                    {
                        "element": "Y",
                        "occu": 1
                    }
                ],
                "abc": [
                    0.15873295,
                    0.65873295,
                    0.49307273
                ],
                "xyz": [
                    1.1538144053425436,
                    4.788265870342544,
                    2.3376273114509223
                ],
                "label": "Y",
                "properties": {}
            },
            {
                "species": [
                    {
                        "element": "Y",
                        "occu": 1
                    }
                ],
                "abc": [
                    0.84126705,
                    0.34126705,
                    0.49307273
                ],
                "xyz": [
                    6.115088524657457,
                    2.4806370596574565,
                    2.3376273114509223
                ],
                "label": "Y",
                "properties": {}
            },
            {
                "species": [
                    {
                        "element": "Y",
                        "occu": 1
                    }
                ],
                "abc": [
                    0.65873295,
                    0.84126705,
                    0.50692727
                ],
                "xyz": [
                    4.788265870342544,
                    6.115088524657457,
                    2.403310828549078
                ],
                "label": "Y",
                "properties": {}
            },
            {
                "species": [
                    {
                        "element": "Be",
                        "occu": 1
                    }
                ],
                "abc": [
                    0.637385,
                    0.137385,
                    0.04142604
                ],
                "xyz": [
                    4.63308969403805,
                    0.9986382290380501,
                    0.1963982930251656
                ],
                "label": "Be",
                "properties": {}
            },
            {
                "species": [
                    {
                        "element": "Be",
                        "occu": 1
                    }
                ],
                "abc": [
                    0.862615,
                    0.637385,
                    0.95857396
                ],
                "xyz": [
                    6.270264700961951,
                    4.63308969403805,
                    4.544539846974834
                ],
                "label": "Be",
                "properties": {}
            },
            {
                "species": [
                    {
                        "element": "Be",
                        "occu": 1
                    }
                ],
                "abc": [
                    0.137385,
                    0.362615,
                    0.95857396
                ],
                "xyz": [
                    0.9986382290380501,
                    2.63581323596195,
                    4.544539846974834
                ],
                "label": "Be",
                "properties": {}
            },
            {
                "species": [
                    {
                        "element": "Be",
                        "occu": 1
                    }
                ],
                "abc": [
                    0.362615,
                    0.862615,
                    0.04142604
                ],
                "xyz": [
                    2.63581323596195,
                    6.270264700961951,
                    0.1963982930251656
                ],
                "label": "Be",
                "properties": {}
            },
            {
                "species": [
                    {
                        "element": "Si",
                        "occu": 1
                    }
                ],
                "abc": [
                    0.5,
                    0.5,
                    0.0
                ],
                "xyz": [
                    3.634451465,
                    3.634451465,
                    0.0
                ],
                "label": "Si",
                "properties": {}
            },
            {
                "species": [
                    {
                        "element": "Si",
                        "occu": 1
                    }
                ],
                "abc": [
                    0.0,
                    0.0,
                    0.0
                ],
                "xyz": [
                    0.0,
                    0.0,
                    0.0
                ],
                "label": "Si",
                "properties": {}
            },
            {
                "species": [
                    {
                        "element": "O",
                        "occu": 1
                    }
                ],
                "abc": [
                    0.16302179,
                    0.91811157,
                    0.20251232
                ],
                "xyz": [
                    1.1849895669848447,
                    6.6736638812399,
                    0.9600983817078848
                ],
                "label": "O",
                "properties": {}
            },
            {
                "species": [
                    {
                        "element": "O",
                        "occu": 1
                    }
                ],
                "abc": [
                    0.91811157,
                    0.83697821,
                    0.79748768
                ],
                "xyz": [
                    6.6736638812399,
                    6.083913363015155,
                    3.780839758292115
                ],
                "label": "O",
                "properties": {}
            },
            {
                "species": [
                    {
                        "element": "O",
                        "occu": 1
                    }
                ],
                "abc": [
                    0.08188843,
                    0.16302179,
                    0.79748768
                ],
                "xyz": [
                    0.5952390487600999,
                    1.1849895669848447,
                    3.780839758292115
                ],
                "label": "O",
                "properties": {}
            },
            {
                "species": [
                    {
                        "element": "O",
                        "occu": 1
                    }
                ],
                "abc": [
                    0.83697821,
                    0.08188843,
                    0.20251232
                ],
                "xyz": [
                    6.083913363015155,
                    0.5952390487600999,
                    0.9600983817078848
                ],
                "label": "O",
                "properties": {}
            },
            {
                "species": [
                    {
                        "element": "O",
                        "occu": 1
                    }
                ],
                "abc": [
                    0.33697821,
                    0.41811157,
                    0.79748768
                ],
                "xyz": [
                    2.4494618980151555,
                    3.0392124162399003,
                    3.780839758292115
                ],
                "label": "O",
                "properties": {}
            },
            {
                "species": [
                    {
                        "element": "O",
                        "occu": 1
                    }
                ],
                "abc": [
                    0.66302179,
                    0.58188843,
                    0.79748768
                ],
                "xyz": [
                    4.819441031984845,
                    4.2296905137601,
                    3.780839758292115
                ],
                "label": "O",
                "properties": {}
            },
            {
                "species": [
                    {
                        "element": "O",
                        "occu": 1
                    }
                ],
                "abc": [
                    0.41811157,
                    0.66302179,
                    0.20251232
                ],
                "xyz": [
                    3.0392124162399003,
                    4.819441031984845,
                    0.9600983817078848
                ],
                "label": "O",
                "properties": {}
            },
            {
                "species": [
                    {
                        "element": "O",
                        "occu": 1
                    }
                ],
                "abc": [
                    0.58188843,
                    0.33697821,
                    0.20251232
                ],
                "xyz": [
                    4.2296905137601,
                    2.4494618980151555,
                    0.9600983817078848
                ],
                "label": "O",
                "properties": {}
            },
            {
                "species": [
                    {
                        "element": "O",
                        "occu": 1
                    }
                ],
                "abc": [
                    0.85855098,
                    0.64144902,
                    0.29271399
                ],
                "xyz": [
                    6.240723734076371,
                    4.662630660923629,
                    1.3877389193025784
                ],
                "label": "O",
                "properties": {}
            },
            {
                "species": [
                    {
                        "element": "O",
                        "occu": 1
                    }
                ],
                "abc": [
                    0.64144902,
                    0.14144902,
                    0.70728601
                ],
                "xyz": [
                    4.662630660923629,
                    1.0281791959236286,
                    3.3531992206974213
                ],
                "label": "O",
                "properties": {}
            },
            {
                "species": [
                    {
                        "element": "O",
                        "occu": 1
                    }
                ],
                "abc": [
                    0.35855098,
                    0.85855098,
                    0.70728601
                ],
                "xyz": [
                    2.6062722690763716,
                    6.240723734076371,
                    3.3531992206974213
                ],
                "label": "O",
                "properties": {}
            },
            {
                "species": [
                    {
                        "element": "O",
                        "occu": 1
                    }
                ],
                "abc": [
                    0.14144902,
                    0.35855098,
                    0.29271399
                ],
                "xyz": [
                    1.0281791959236286,
                    2.6062722690763716,
                    1.3877389193025784
                ],
                "label": "O",
                "properties": {}
            },
            {
                "species": [
                    {
                        "element": "O",
                        "occu": 1
                    }
                ],
                "abc": [
                    0.0,
                    0.5,
                    0.81669541
                ],
                "xyz": [
                    0.0,
                    3.634451465,
                    3.8719024180319375
                ],
                "label": "O",
                "properties": {}
            },
            {
                "species": [
                    {
                        "element": "O",
                        "occu": 1
                    }
                ],
                "abc": [
                    0.5,
                    0.0,
                    0.18330459
                ],
                "xyz": [
                    3.634451465,
                    0.0,
                    0.8690357219680626
                ],
                "label": "O",
                "properties": {}
            }
        ]
    },
    "spacegroup": {
        "source": "spglib",
        "symbol": "P-42_1m",
        "number": 113,
        "point_group": "-42m",
        "crystal_system": "tetragonal",
        "hall": "P -4 2ab"
    },
    "dielectric": {
        "epsilon_ionic": [
            [
                8.47846084,
                -0.0,
                0.0
            ],
            [
                -0.0,
                8.47845578,
                0.0
            ],
            [
                0.0,
                0.0,
                5.87378065
            ]
        ],
        "epsilon_ionic_avg": 7.610232423333334,
        "epsilon_ionic_eig": [
            8.47846084,
            8.47845578,
            5.87378065
        ],
        "epsilon_electronic": [
            [
                3.69451235,
                -0.0,
                0.0
            ],
            [
                0.0,
                3.69451235,
                -0.0
            ],
            [
                0.0,
                0.0,
                3.53383576
            ]
        ],
        "epsilon_electronic_avg": 3.640953486666667,
        "epsilon_electronic_eig": [
            3.69451235,
            3.69451235,
            3.53383576
        ]
    },
    "phonon": {
        "lowest_freq": -0.03207925347289855,
        "frequency": [
            -0.03207925347289855,
            -0.023366727811206394,
            -0.023366727811206394,
            3.3222019156195977,
            3.3222019156195977,
            3.422722300791298,
            4.385817601501541,
            4.525841382608741,
            5.419478023404101,
            5.419478023404101,
            5.893233893690844,
            5.893233893690844,
            5.9690178363576525,
            7.081509526927042,
            7.300285815301659,
            7.568741581634955,
            7.568741581634955,
            8.024671635563688,
            8.10343486171819,
            8.10343486171819,
            8.343005912478182,
            8.624267528681,
            8.653858019264574,
            8.657477008186554,
            8.657477008186554,
            9.174696499989224,
            9.808047815931584,
            9.808047815931584,
            10.072824003021319,
            10.831857397358865,
            11.154166901068509,
            11.154166901068509,
            11.270432762094392,
            11.527219888840735,
            11.845210570094094,
            11.845210570094094,
            12.370712202183661,
            13.485518310757637,
            13.642507873727125,
            13.642507873727125,
            14.070404627363951,
            14.306610967511169,
            14.306610967511169,
            14.62091483235031,
            15.08542773066362,
            16.237488840514633,
            16.644681491389758,
            16.644681491389758,
            17.20023821151252,
            17.20023821151252,
            18.83830561089181,
            18.891467073044808,
            19.178616630674462,
            19.29900339938025,
            20.26613901861313,
            20.26613901861313,
            22.464909954801477,
            23.16054728654911,
            23.16054728654911,
            23.696355614083267,
            26.015423843985502,
            26.545874345648677,
            26.628807355838497,
            27.000918778100512,
            27.188986788438363,
            27.188986788438363,
            27.195079617314175,
            27.27636265151472,
            27.27636265151472,
            28.727296221263654,
            30.06003078273312,
            30.06003078273312
        ]
    },
    "born_effective_charge": {
        "avg_abs_trace": 2.383242777777778,
        "tensors": [
            [
                [
                    3.84268,
                    -0.44313,
                    -0.07654
                ],
                [
                    -0.44329,
                    3.84263,
                    0.07654
                ],
                [
                    -0.19216,
                    0.19216,
                    3.40617
                ]
            ],
            [
                [
                    3.84263,
                    0.44329,
                    -0.07654
                ],
                [
                    0.44329,
                    3.84263,
                    -0.07654
                ],
                [
                    -0.19197,
                    -0.19197,
                    3.40602
                ]
            ],
            [
                [
                    3.84268,
                    0.44313,
                    0.07654
                ],
                [
                    0.44313,
                    3.84267,
                    0.07655
                ],
                [
                    0.19197,
                    0.19197,
                    3.40602
                ]
            ],
            [
                [
                    3.84263,
                    -0.44329,
                    0.07654
                ],
                [
                    -0.44313,
                    3.84267,
                    -0.07655
                ],
                [
                    0.19216,
                    -0.19216,
                    3.40617
                ]
            ],
            [
                [
                    1.64163,
                    -0.02523,
                    0.00966
                ],
                [
                    -0.02523,
                    1.64163,
                    0.00966
                ],
                [
                    -0.12433,
                    -0.12433,
                    2.04562
                ]
            ],
            [
                [
                    1.64164,
                    0.02524,
                    0.00967
                ],
                [
                    0.02523,
                    1.64163,
                    -0.00966
                ],
                [
                    -0.1243,
                    0.1243,
                    2.04556
                ]
            ],
            [
                [
                    1.64163,
                    0.02523,
                    -0.00966
                ],
                [
                    0.02524,
                    1.64164,
                    0.00967
                ],
                [
                    0.1243,
                    -0.1243,
                    2.04556
                ]
            ],
            [
                [
                    1.64164,
                    -0.02524,
                    -0.00967
                ],
                [
                    -0.02524,
                    1.64164,
                    -0.00967
                ],
                [
                    0.12433,
                    0.12433,
                    2.04562
                ]
            ],
            [
                [
                    3.36607,
                    -0.09884,
                    -1e-05
                ],
                [
                    0.09884,
                    3.36607,
                    1e-05
                ],
                [
                    0.0,
                    0.0,
                    3.32571
                ]
            ],
            [
                [
                    3.36607,
                    0.09884,
                    1e-05
                ],
                [
                    -0.09884,
                    3.36607,
                    -1e-05
                ],
                [
                    0.0,
                    0.0,
                    3.32571
                ]
            ],
            [
                [
                    -2.09814,
                    0.12677,
                    -0.21412
                ],
                [
                    0.20261,
                    -1.90192,
                    0.29979
                ],
                [
                    -0.28467,
                    0.25881,
                    -1.90941
                ]
            ],
            [
                [
                    -1.90192,
                    -0.20261,
                    -0.29979
                ],
                [
                    -0.12675,
                    -2.09816,
                    -0.21415
                ],
                [
                    -0.25882,
                    -0.28471,
                    -1.90941
                ]
            ],
            [
                [
                    -1.90194,
                    -0.20262,
                    0.29981
                ],
                [
                    -0.12677,
                    -2.09814,
                    0.21412
                ],
                [
                    0.25882,
                    0.28471,
                    -1.90941
                ]
            ],
            [
                [
                    -2.09816,
                    0.12675,
                    0.21415
                ],
                [
                    0.20262,
                    -1.90194,
                    -0.29981
                ],
                [
                    0.28467,
                    -0.25881,
                    -1.90941
                ]
            ],
            [
                [
                    -2.09816,
                    -0.12675,
                    -0.21415
                ],
                [
                    -0.20261,
                    -1.90192,
                    -0.29979
                ],
                [
                    -0.28471,
                    -0.25882,
                    -1.90941
                ]
            ],
            [
                [
                    -2.09814,
                    -0.12677,
                    0.21412
                ],
                [
                    -0.20262,
                    -1.90194,
                    0.29981
                ],
                [
                    0.28471,
                    0.25882,
                    -1.90941
                ]
            ],
            [
                [
                    -1.90192,
                    0.20261,
                    0.29979
                ],
                [
                    0.12677,
                    -2.09814,
                    -0.21412
                ],
                [
                    0.25881,
                    -0.28467,
                    -1.90941
                ]
            ],
            [
                [
                    -1.90194,
                    0.20262,
                    -0.29981
                ],
                [
                    0.12675,
                    -2.09816,
                    0.21415
                ],
                [
                    -0.25881,
                    0.28467,
                    -1.90941
                ]
            ],
            [
                [
                    -2.14865,
                    0.26353,
                    -0.00383
                ],
                [
                    0.26346,
                    -2.14868,
                    0.00384
                ],
                [
                    -0.00366,
                    0.00366,
                    -2.21723
                ]
            ],
            [
                [
                    -2.14867,
                    -0.26347,
                    -0.00384
                ],
                [
                    -0.26346,
                    -2.14868,
                    -0.00384
                ],
                [
                    -0.0037,
                    -0.0037,
                    -2.21732
                ]
            ],
            [
                [
                    -2.14865,
                    -0.26353,
                    0.00383
                ],
                [
                    -0.26353,
                    -2.14864,
                    0.00383
                ],
                [
                    0.0037,
                    0.0037,
                    -2.21732
                ]
            ],
            [
                [
                    -2.14867,
                    0.26347,
                    0.00384
                ],
                [
                    0.26353,
                    -2.14864,
                    -0.00383
                ],
                [
                    0.00366,
                    -0.00366,
                    -2.21723
                ]
            ],
            [
                [
                    -2.03717,
                    0.04067,
                    -2e-05
                ],
                [
                    0.04067,
                    -2.03717,
                    -2e-05
                ],
                [
                    0.0,
                    0.0,
                    -2.15692
                ]
            ],
            [
                [
                    -2.03717,
                    -0.04067,
                    2e-05
                ],
                [
                    -0.04067,
                    -2.03717,
                    2e-05
                ],
                [
                    0.0,
                    0.0,
                    -2.15684
                ]
            ]
        ]
    },
    "band_gap": 5.1852,
    "is_direct": false,
    "formula": "Y2Be2SiO7"
}