{
    "mp_id": "mp-6983",
    "nelements": 3,
    "nsites": 12,
    "elements": [
        "Ag",
        "Na",
        "O"
    ],
    "structure": {
        "@module": "pymatgen.core.structure",
        "@class": "Structure",
        "charge": null,
        "lattice": {
            "matrix": [
                [
                    -4.66682221,
                    4.66682221,
                    2.2764961
                ],
                [
                    4.66682221,
                    -4.66682221,
                    2.2764961
                ],
                [
                    4.66682221,
                    4.66682221,
                    -2.2764961
                ]
            ],
            "a": 6.981467866631901,
            "b": 6.981467866631901,
            "c": 6.981467866631901,
            "alpha": 96.10358057755661,
            "beta": 96.10358057755661,
            "gamma": 141.93832500792897,
            "volume": 198.3213244329762
        },
        "sites": [
            {
                "species": [
                    {
                        "element": "Na",
                        "occu": 1
                    }
                ],
                "abc": [
                    0.15932965,
                    0.5,
                    0.65932965
                ],
                "xyz": [
                    4.66682221,
                    1.4871262986630531,
                    0.0
                ],
                "label": "Na",
                "properties": {}
            },
            {
                "species": [
                    {
                        "element": "Na",
                        "occu": 1
                    }
                ],
                "abc": [
                    0.5,
                    0.15932965,
                    0.65932965
                ],
                "xyz": [
                    1.4871262986630531,
                    4.66682221,
                    0.0
                ],
                "label": "Na",
                "properties": {}
            },
            {
                "species": [
                    {
                        "element": "Na",
                        "occu": 1
                    }
                ],
                "abc": [
                    0.5,
                    0.84067035,
                    0.34067035
                ],
                "xyz": [
                    3.179695911336947,
                    2.220446049250313e-16,
                    2.2764961
                ],
                "label": "Na",
                "properties": {}
            },
            {
                "species": [
                    {
                        "element": "Na",
                        "occu": 1
                    }
                ],
                "abc": [
                    0.84067035,
                    0.5,
                    0.34067035
                ],
                "xyz": [
                    2.220446049250313e-16,
                    3.179695911336947,
                    2.2764961
                ],
                "label": "Na",
                "properties": {}
            },
            {
                "species": [
                    {
                        "element": "Ag",
                        "occu": 1
                    }
                ],
                "abc": [
                    0.84354751,
                    0.84354751,
                    0.68709603
                ],
                "xyz": [
                    3.2065550132068266,
                    3.2065550132068266,
                    2.276493800738939
                ],
                "label": "Ag",
                "properties": {}
            },
            {
                "species": [
                    {
                        "element": "Ag",
                        "occu": 1
                    }
                ],
                "abc": [
                    0.15645249,
                    0.84354751,
                    0.0
                ],
                "xyz": [
                    3.206550299716394,
                    -3.206550299716394,
                    2.2764961
                ],
                "label": "Ag",
                "properties": {}
            },
            {
                "species": [
                    {
                        "element": "Ag",
                        "occu": 1
                    }
                ],
                "abc": [
                    0.84354751,
                    0.15645249,
                    0.0
                ],
                "xyz": [
                    -3.206550299716394,
                    3.206550299716394,
                    2.2764961
                ],
                "label": "Ag",
                "properties": {}
            },
            {
                "species": [
                    {
                        "element": "Ag",
                        "occu": 1
                    }
                ],
                "abc": [
                    0.15645249,
                    0.15645249,
                    0.31290397
                ],
                "xyz": [
                    1.4602671967931737,
                    1.4602671967931737,
                    2.299261061100566e-06
                ],
                "label": "Ag",
                "properties": {}
            },
            {
                "species": [
                    {
                        "element": "O",
                        "occu": 1
                    }
                ],
                "abc": [
                    0.69093275,
                    0.0,
                    0.69093275
                ],
                "xyz": [
                    0.0,
                    6.448920606632755,
                    0.0
                ],
                "label": "O",
                "properties": {}
            },
            {
                "species": [
                    {
                        "element": "O",
                        "occu": 1
                    }
                ],
                "abc": [
                    0.0,
                    0.69093275,
                    0.69093275
                ],
                "xyz": [
                    6.448920606632755,
                    0.0,
                    0.0
                ],
                "label": "O",
                "properties": {}
            },
            {
                "species": [
                    {
                        "element": "O",
                        "occu": 1
                    }
                ],
                "abc": [
                    0.0,
                    0.30906725,
                    0.30906725
                ],
                "xyz": [
                    2.8847238133672453,
                    0.0,
                    0.0
                ],
                "label": "O",
                "properties": {}
            },
            {
                "species": [
                    {
                        "element": "O",
                        "occu": 1
                    }
                ],
                "abc": [
                    0.30906725,
                    0.0,
                    0.30906725
                ],
                "xyz": [
                    0.0,
                    2.8847238133672453,
                    0.0
                ],
                "label": "O",
                "properties": {}
            }
        ]
    },
    "spacegroup": {
        "source": "spglib",
        "symbol": "I4/mmm",
        "number": 139,
        "point_group": "4/mmm",
        "crystal_system": "tetragonal",
        "hall": "-I 4 2"
    },
    "dielectric": {
        "epsilon_ionic": [
            [
                2.3073389,
                0.0,
                -0.0
            ],
            [
                0.0,
                2.30733015,
                -0.0
            ],
            [
                -0.0,
                -0.0,
                0.93998034
            ]
        ],
        "epsilon_ionic_avg": 1.8515497966666665,
        "epsilon_ionic_eig": [
            2.3073389,
            2.30733015,
            0.93998034
        ],
        "epsilon_electronic": [
            [
                4.47360822,
                0.0,
                0.0
            ],
            [
                0.0,
                4.47360822,
                -0.0
            ],
            [
                0.0,
                0.0,
                3.52430816
            ]
        ],
        "epsilon_electronic_avg": 4.157174866666667,
        "epsilon_electronic_eig": [
            4.47360822,
            4.47360822,
            3.52430816
        ]
    },
    "phonon": {
        "lowest_freq": -0.05870852436551406,
        "frequency": [
            -0.05870852436551406,
            -0.05870852436551406,
            -0.008186123414560834,
            1.715483651294944,
            1.715483651294944,
            1.7264257304130768,
            2.0688161963012304,
            2.5122239333244845,
            2.7947330727386626,
            2.8589419016668822,
            3.1577056650613775,
            3.1577056650613775,
            4.515498986022519,
            5.005526555156944,
            5.128724228358913,
            5.128724228358913,
            5.164789552555355,
            5.164789552555355,
            5.961929033364621,
            6.160835394191326,
            6.160835394191326,
            6.243074018466903,
            6.424976521481832,
            7.005472082791206,
            10.324623750011567,
            10.37594827200969,
            10.37594827200969,
            10.470592960419452,
            13.029220259658349,
            13.029220259658349,
            13.877368564821206,
            13.973332611495422,
            14.699531248593061,
            14.731877025656999,
            14.731877025656999,
            15.126345935626114
        ]
    },
    "born_effective_charge": {
        "avg_abs_trace": 1.0665252777777778,
        "tensors": [
            [
                [
                    1.20848,
                    4e-05,
                    -0.0
                ],
                [
                    0.0,
                    0.89795,
                    0.0
                ],
                [
                    -0.0,
                    -2e-05,
                    1.04236
                ]
            ],
            [
                [
                    0.898,
                    0.0,
                    -0.0
                ],
                [
                    1e-05,
                    1.20848,
                    0.0
                ],
                [
                    -2e-05,
                    -0.0,
                    1.04236
                ]
            ],
            [
                [
                    0.89788,
                    0.0,
                    -0.0
                ],
                [
                    -1e-05,
                    1.20848,
                    0.0
                ],
                [
                    2e-05,
                    -0.0,
                    1.04236
                ]
            ],
            [
                [
                    1.20848,
                    -4e-05,
                    -0.0
                ],
                [
                    0.0,
                    0.89792,
                    0.0
                ],
                [
                    -0.0,
                    2e-05,
                    1.04236
                ]
            ],
            [
                [
                    0.88174,
                    -0.77917,
                    0.0
                ],
                [
                    -0.77919,
                    0.88178,
                    -0.0
                ],
                [
                    -5e-05,
                    -5e-05,
                    -0.11285
                ]
            ],
            [
                [
                    0.88174,
                    0.77917,
                    -0.0
                ],
                [
                    0.77921,
                    0.88165,
                    -0.0
                ],
                [
                    -5e-05,
                    5e-05,
                    -0.11285
                ]
            ],
            [
                [
                    0.8817,
                    0.77919,
                    -0.0
                ],
                [
                    0.77919,
                    0.88178,
                    0.0
                ],
                [
                    5e-05,
                    -5e-05,
                    -0.11285
                ]
            ],
            [
                [
                    0.8817,
                    -0.77919,
                    0.0
                ],
                [
                    -0.77921,
                    0.88165,
                    0.0
                ],
                [
                    5e-05,
                    5e-05,
                    -0.11285
                ]
            ],
            [
                [
                    -2.29737,
                    4e-05,
                    0.0
                ],
                [
                    0.0,
                    -1.57248,
                    -0.0
                ],
                [
                    -0.0,
                    1e-05,
                    -0.92951
                ]
            ],
            [
                [
                    -1.57247,
                    0.0,
                    -0.0
                ],
                [
                    -0.00011,
                    -2.29736,
                    0.0
                ],
                [
                    1e-05,
                    -0.0,
                    -0.92951
                ]
            ],
            [
                [
                    -1.57252,
                    0.0,
                    0.0
                ],
                [
                    0.00011,
                    -2.29736,
                    -0.0
                ],
                [
                    -1e-05,
                    0.0,
                    -0.92951
                ]
            ],
            [
                [
                    -2.29737,
                    -4e-05,
                    0.0
                ],
                [
                    -0.0,
                    -1.57249,
                    0.0
                ],
                [
                    0.0,
                    -1e-05,
                    -0.92951
                ]
            ]
        ]
    },
    "band_gap": 1.4762,
    "is_direct": false,
    "formula": "NaAgO"
}