{
    "mp_id": "mp-782050",
    "nelements": 3,
    "nsites": 22,
    "elements": [
        "Ba",
        "O",
        "Pd"
    ],
    "structure": {
        "@module": "pymatgen.core.structure",
        "@class": "Structure",
        "charge": null,
        "lattice": {
            "matrix": [
                [
                    5.08524662,
                    2.9359681,
                    4.2235732
                ],
                [
                    -5.08524662,
                    2.9359681,
                    4.2235732
                ],
                [
                    0.0,
                    -5.87193719,
                    4.2235732
                ]
            ],
            "a": 7.233132962015649,
            "b": 7.233132962015649,
            "c": 7.233133272591024,
            "alpha": 89.34427016819026,
            "beta": 89.34427016819026,
            "gamma": 89.34427476945073,
            "volume": 378.3508178128255
        },
        "sites": [
            {
                "species": [
                    {
                        "element": "Ba",
                        "occu": 1
                    }
                ],
                "abc": [
                    0.11878199,
                    0.75,
                    0.38121801
                ],
                "xyz": [
                    -3.2098992518356266,
                    0.31222799807772716,
                    5.2794665
                ],
                "label": "Ba",
                "properties": {}
            },
            {
                "species": [
                    {
                        "element": "Ba",
                        "occu": 1
                    }
                ],
                "abc": [
                    0.25,
                    0.61878199,
                    0.88121801
                ],
                "xyz": [
                    -1.875347368164374,
                    -2.6237405969222722,
                    7.3912531
                ],
                "label": "Ba",
                "properties": {}
            },
            {
                "species": [
                    {
                        "element": "Ba",
                        "occu": 1
                    }
                ],
                "abc": [
                    0.61878199,
                    0.88121801,
                    0.25
                ],
                "xyz": [
                    -1.3345518836712529,
                    2.9359678525,
                    7.391253099999999
                ],
                "label": "Ba",
                "properties": {}
            },
            {
                "species": [
                    {
                        "element": "Ba",
                        "occu": 1
                    }
                ],
                "abc": [
                    0.75,
                    0.75,
                    0.75
                ],
                "xyz": [
                    0.0,
                    -7.424999992622361e-07,
                    9.503039699999999
                ],
                "label": "Ba",
                "properties": {}
            },
            {
                "species": [
                    {
                        "element": "Ba",
                        "occu": 1
                    }
                ],
                "abc": [
                    0.25,
                    0.25,
                    0.25
                ],
                "xyz": [
                    0.0,
                    -2.4749999982809356e-07,
                    3.1676798999999995
                ],
                "label": "Ba",
                "properties": {}
            },
            {
                "species": [
                    {
                        "element": "Ba",
                        "occu": 1
                    }
                ],
                "abc": [
                    0.38121801,
                    0.11878199,
                    0.75
                ],
                "xyz": [
                    1.3345518836712524,
                    -2.9359688424999995,
                    5.2794665
                ],
                "label": "Ba",
                "properties": {}
            },
            {
                "species": [
                    {
                        "element": "Ba",
                        "occu": 1
                    }
                ],
                "abc": [
                    0.75,
                    0.38121801,
                    0.11878199
                ],
                "xyz": [
                    1.8753473681643742,
                    2.6237396069222734,
                    5.279466499999999
                ],
                "label": "Ba",
                "properties": {}
            },
            {
                "species": [
                    {
                        "element": "Ba",
                        "occu": 1
                    }
                ],
                "abc": [
                    0.88121801,
                    0.25,
                    0.61878199
                ],
                "xyz": [
                    3.209899251835627,
                    -0.3122289880777265,
                    7.391253099999999
                ],
                "label": "Ba",
                "properties": {}
            },
            {
                "species": [
                    {
                        "element": "Pd",
                        "occu": 1
                    }
                ],
                "abc": [
                    0.0,
                    0.0,
                    0.0
                ],
                "xyz": [
                    0.0,
                    0.0,
                    0.0
                ],
                "label": "Pd",
                "properties": {}
            },
            {
                "species": [
                    {
                        "element": "Pd",
                        "occu": 1
                    }
                ],
                "abc": [
                    0.5,
                    0.5,
                    0.5
                ],
                "xyz": [
                    0.0,
                    -4.949999996561871e-07,
                    6.335359799999999
                ],
                "label": "Pd",
                "properties": {}
            },
            {
                "species": [
                    {
                        "element": "O",
                        "occu": 1
                    }
                ],
                "abc": [
                    0.06207004,
                    0.92646249,
                    0.73123397
                ],
                "xyz": [
                    -4.395648784716019,
                    -1.3914599691420513,
                    7.2635596996578
                ],
                "label": "O",
                "properties": {}
            },
            {
                "species": [
                    {
                        "element": "O",
                        "occu": 1
                    }
                ],
                "abc": [
                    0.26876603,
                    0.93792996,
                    0.07353751
                ],
                "xyz": [
                    -3.4028636132584165,
                    3.1110132932089223,
                    5.407159900342199
                ],
                "label": "O",
                "properties": {}
            },
            {
                "species": [
                    {
                        "element": "O",
                        "occu": 1
                    }
                ],
                "abc": [
                    0.43792996,
                    0.76876603,
                    0.57353751
                ],
                "xyz": [
                    -1.6823830067415835,
                    0.17504469820892288,
                    7.518946500342199
                ],
                "label": "O",
                "properties": {}
            },
            {
                "species": [
                    {
                        "element": "O",
                        "occu": 1
                    }
                ],
                "abc": [
                    0.23123397,
                    0.42646249,
                    0.56207004
                ],
                "xyz": [
                    -0.9927851714576028,
                    -1.3694641452178615,
                    5.151773099657801
                ],
                "label": "O",
                "properties": {}
            },
            {
                "species": [
                    {
                        "element": "O",
                        "occu": 1
                    }
                ],
                "abc": [
                    0.07353751,
                    0.26876603,
                    0.93792996
                ],
                "xyz": [
                    -0.9927851714576025,
                    -4.502473539782137,
                    5.407159900342199
                ],
                "label": "O",
                "properties": {}
            },
            {
                "species": [
                    {
                        "element": "O",
                        "occu": 1
                    }
                ],
                "abc": [
                    0.42646249,
                    0.56207004,
                    0.23123397
                ],
                "xyz": [
                    -0.6895978352839811,
                    1.544508625857949,
                    5.151773099657801
                ],
                "label": "O",
                "properties": {}
            },
            {
                "species": [
                    {
                        "element": "O",
                        "occu": 1
                    }
                ],
                "abc": [
                    0.57353751,
                    0.43792996,
                    0.76876603
                ],
                "xyz": [
                    0.6895978352839807,
                    -1.5445096158579483,
                    7.518946500342199
                ],
                "label": "O",
                "properties": {}
            },
            {
                "species": [
                    {
                        "element": "O",
                        "occu": 1
                    }
                ],
                "abc": [
                    0.76876603,
                    0.57353751,
                    0.43792996
                ],
                "xyz": [
                    0.9927851714576028,
                    1.3694631552178618,
                    7.518946500342199
                ],
                "label": "O",
                "properties": {}
            },
            {
                "species": [
                    {
                        "element": "O",
                        "occu": 1
                    }
                ],
                "abc": [
                    0.92646249,
                    0.73123397,
                    0.06207004
                ],
                "xyz": [
                    0.9927851714576024,
                    4.502472549782139,
                    7.2635596996578
                ],
                "label": "O",
                "properties": {}
            },
            {
                "species": [
                    {
                        "element": "O",
                        "occu": 1
                    }
                ],
                "abc": [
                    0.56207004,
                    0.23123397,
                    0.42646249
                ],
                "xyz": [
                    1.682383006741584,
                    -0.17504568820892175,
                    5.1517730996578
                ],
                "label": "O",
                "properties": {}
            },
            {
                "species": [
                    {
                        "element": "O",
                        "occu": 1
                    }
                ],
                "abc": [
                    0.73123397,
                    0.06207004,
                    0.92646249
                ],
                "xyz": [
                    3.402863613258417,
                    -3.1110142832089216,
                    7.263559699657799
                ],
                "label": "O",
                "properties": {}
            },
            {
                "species": [
                    {
                        "element": "O",
                        "occu": 1
                    }
                ],
                "abc": [
                    0.93792996,
                    0.07353751,
                    0.26876603
                ],
                "xyz": [
                    4.395648784716019,
                    1.3914589791420515,
                    5.407159900342199
                ],
                "label": "O",
                "properties": {}
            }
        ]
    },
    "spacegroup": {
        "source": "spglib",
        "symbol": "R-3c",
        "number": 167,
        "point_group": "-3m",
        "crystal_system": "trigonal",
        "hall": "-R 3 2\"c"
    },
    "dielectric": {
        "epsilon_ionic": [
            [
                13.01247889,
                -0.0,
                -4e-08
            ],
            [
                -0.0,
                13.01248151,
                1.86e-05
            ],
            [
                -4e-08,
                1.86e-05,
                12.96103938
            ]
        ],
        "epsilon_ionic_avg": 12.995333259999997,
        "epsilon_ionic_eig": [
            12.961039373274744,
            13.012478890000024,
            13.012481516725225
        ],
        "epsilon_electronic": [
            [
                5.25844999,
                -0.0,
                -0.0
            ],
            [
                0.0,
                5.25844859,
                -4.3e-07
            ],
            [
                0.0,
                -4.3e-07,
                5.48674102
            ]
        ],
        "epsilon_electronic_avg": 5.3345465333333335,
        "epsilon_electronic_eig": [
            5.48674102000081,
            5.25844858999919,
            5.25844999
        ]
    },
    "phonon": {
        "lowest_freq": -0.024534180706973125,
        "frequency": [
            -0.024534180706973125,
            -0.024534177469447124,
            -0.022913895212063627,
            1.6414344808340562,
            1.641434607394151,
            2.42487917524144,
            2.4248793062665914,
            2.4385607014180097,
            2.4765997212226294,
            2.4765998692482403,
            2.4955351155749477,
            2.8652074973992248,
            3.014518827958792,
            3.060989066092484,
            3.060989425388288,
            3.462490761144989,
            3.5715318023584515,
            3.571532168459248,
            3.6238997271396345,
            3.702053707941827,
            3.7020539951177067,
            4.142317031576802,
            4.142317123028083,
            4.302819512758617,
            4.30281959795861,
            4.506502893202899,
            4.506502955570583,
            4.866567550220971,
            5.154864585293065,
            5.381076519984565,
            5.8760067882806455,
            6.471683967307888,
            7.36608552676622,
            7.366085543355772,
            8.19287262900294,
            8.244575252301782,
            8.244575326411159,
            8.840956289414622,
            9.105863740375112,
            9.105863887994355,
            9.393082801562752,
            9.393083035735195,
            9.648999146124293,
            9.648999602047462,
            10.469126843470605,
            10.53335923198799,
            10.533359487215343,
            10.600161994690122,
            10.600162398174731,
            10.77586339121406,
            11.144465067348873,
            11.144465538847745,
            11.248053930147403,
            12.085510943843598,
            12.085512076307653,
            12.16867294480359,
            12.442747945403319,
            12.44274810253911,
            12.679193501898535,
            12.877333874105004,
            12.87733413981232,
            13.413151542178118,
            13.413152881416604,
            13.517435630341847,
            13.571336125024146,
            14.118565766074992
        ]
    },
    "born_effective_charge": {
        "avg_abs_trace": 2.435121515151515,
        "tensors": [
            [
                [
                    3.19223,
                    -0.362,
                    0.683
                ],
                [
                    -0.36206,
                    2.77417,
                    -0.39423
                ],
                [
                    0.56327,
                    -0.32528,
                    2.45151
                ]
            ],
            [
                [
                    3.19201,
                    0.36205,
                    -0.68321
                ],
                [
                    0.36206,
                    2.77417,
                    -0.39423
                ],
                [
                    -0.56327,
                    -0.32528,
                    2.45151
                ]
            ],
            [
                [
                    2.56511,
                    -0.0,
                    -0.0
                ],
                [
                    -0.0,
                    3.40113,
                    0.78879
                ],
                [
                    -7e-05,
                    0.65045,
                    2.45151
                ]
            ],
            [
                [
                    1.74927,
                    -0.0,
                    -0.0
                ],
                [
                    -0.00018,
                    1.74916,
                    -0.0
                ],
                [
                    -0.0,
                    -0.0,
                    4.89431
                ]
            ],
            [
                [
                    1.74904,
                    -0.0,
                    -0.0
                ],
                [
                    0.00018,
                    1.74916,
                    -0.0
                ],
                [
                    -0.0,
                    -0.0,
                    4.89431
                ]
            ],
            [
                [
                    2.56504,
                    -0.0,
                    -0.0
                ],
                [
                    0.0,
                    3.40113,
                    0.78879
                ],
                [
                    7e-05,
                    0.65045,
                    2.45151
                ]
            ],
            [
                [
                    3.19223,
                    0.362,
                    -0.683
                ],
                [
                    0.36199,
                    2.77401,
                    -0.39456
                ],
                [
                    -0.56334,
                    -0.32517,
                    2.45151
                ]
            ],
            [
                [
                    3.19201,
                    -0.36205,
                    0.68321
                ],
                [
                    -0.36199,
                    2.77401,
                    -0.39456
                ],
                [
                    0.56334,
                    -0.32517,
                    2.45151
                ]
            ],
            [
                [
                    2.10628,
                    0.0304,
                    0.0
                ],
                [
                    -0.0304,
                    2.10628,
                    1e-05
                ],
                [
                    -0.0,
                    -0.0,
                    2.32117
                ]
            ],
            [
                [
                    2.10628,
                    -0.0304,
                    -0.0
                ],
                [
                    0.0304,
                    2.10628,
                    1e-05
                ],
                [
                    -0.0,
                    -0.0,
                    2.32117
                ]
            ],
            [
                [
                    -1.86744,
                    -0.39314,
                    0.30247
                ],
                [
                    -0.28486,
                    -2.40088,
                    0.53766
                ],
                [
                    0.21214,
                    0.47894,
                    -2.4284
                ]
            ],
            [
                [
                    -2.56116,
                    -0.11557,
                    -0.61695
                ],
                [
                    -0.00739,
                    -1.70712,
                    -0.00696
                ],
                [
                    -0.52087,
                    -0.05542,
                    -2.42827
                ]
            ],
            [
                [
                    -2.56112,
                    0.11519,
                    0.61687
                ],
                [
                    0.00739,
                    -1.70712,
                    -0.00696
                ],
                [
                    0.52087,
                    -0.05542,
                    -2.42827
                ]
            ],
            [
                [
                    -1.97361,
                    -0.34655,
                    -0.31447
                ],
                [
                    -0.45446,
                    -2.29441,
                    -0.53071
                ],
                [
                    -0.30871,
                    -0.42319,
                    -2.4284
                ]
            ],
            [
                [
                    -1.97361,
                    0.34655,
                    0.31447
                ],
                [
                    0.45454,
                    -2.29457,
                    -0.53089
                ],
                [
                    0.30843,
                    -0.42337,
                    -2.42827
                ]
            ],
            [
                [
                    -1.86749,
                    0.3931,
                    -0.30245
                ],
                [
                    0.28486,
                    -2.40088,
                    0.53766
                ],
                [
                    -0.21214,
                    0.47894,
                    -2.4284
                ]
            ],
            [
                [
                    -1.86744,
                    0.39314,
                    -0.30247
                ],
                [
                    0.28537,
                    -2.40068,
                    0.53779
                ],
                [
                    -0.21243,
                    0.4788,
                    -2.42827
                ]
            ],
            [
                [
                    -1.97392,
                    -0.34645,
                    -0.31444
                ],
                [
                    -0.45454,
                    -2.29457,
                    -0.53089
                ],
                [
                    -0.30843,
                    -0.42337,
                    -2.42827
                ]
            ],
            [
                [
                    -1.97392,
                    0.34645,
                    0.31444
                ],
                [
                    0.45446,
                    -2.29441,
                    -0.53071
                ],
                [
                    0.30871,
                    -0.42319,
                    -2.4284
                ]
            ],
            [
                [
                    -2.56116,
                    0.11557,
                    0.61695
                ],
                [
                    0.00737,
                    -1.70709,
                    -0.0069
                ],
                [
                    0.52085,
                    -0.05576,
                    -2.4284
                ]
            ],
            [
                [
                    -2.56112,
                    -0.11519,
                    -0.61687
                ],
                [
                    -0.00737,
                    -1.70709,
                    -0.0069
                ],
                [
                    -0.52085,
                    -0.05576,
                    -2.4284
                ]
            ],
            [
                [
                    -1.86749,
                    -0.3931,
                    0.30245
                ],
                [
                    -0.28537,
                    -2.40068,
                    0.53779
                ],
                [
                    0.21243,
                    0.4788,
                    -2.42827
                ]
            ]
        ]
    },
    "band_gap": 1.4826000000000001,
    "is_direct": true,
    "formula": "Ba4PdO6"
}