{
    "mp_id": "mp-756746",
    "nelements": 3,
    "nsites": 18,
    "elements": [
        "O",
        "Pb",
        "Rb"
    ],
    "structure": {
        "@module": "pymatgen.core.structure",
        "@class": "Structure",
        "charge": null,
        "lattice": {
            "matrix": [
                [
                    6.84303259,
                    -0.00081655,
                    0.00039642
                ],
                [
                    2.66567108,
                    6.31578736,
                    0.00458603
                ],
                [
                    1.91280399,
                    2.70776222,
                    9.69262347
                ]
            ],
            "a": 6.843032650200117,
            "b": 6.8552894406549525,
            "c": 10.243912586283333,
            "alpha": 71.53243864146359,
            "beta": 79.23686897085007,
            "gamma": 67.12394710017188,
            "volume": 418.841025103621
        },
        "sites": [
            {
                "species": [
                    {
                        "element": "Rb",
                        "occu": 1
                    }
                ],
                "abc": [
                    0.24209862,
                    0.76240226,
                    0.02611146
                ],
                "xyz": [
                    3.738948507335392,
                    4.885676496212314,
                    0.2566809224033344
                ],
                "label": "Rb",
                "properties": {}
            },
            {
                "species": [
                    {
                        "element": "Rb",
                        "occu": 1
                    }
                ],
                "abc": [
                    0.27513562,
                    0.510115,
                    0.43927638
                ],
                "xyz": [
                    4.082810429680812,
                    4.411009193058252,
                    4.260189022560569
                ],
                "label": "Rb",
                "properties": {}
            },
            {
                "species": [
                    {
                        "element": "Rb",
                        "occu": 1
                    }
                ],
                "abc": [
                    0.25258799,
                    0.41312904,
                    0.83045888
                ],
                "xyz": [
                    4.418239040843688,
                    4.857714098685214,
                    8.051319984260221
                ],
                "label": "Rb",
                "properties": {}
            },
            {
                "species": [
                    {
                        "element": "Rb",
                        "occu": 1
                    }
                ],
                "abc": [
                    0.22165445,
                    0.96093074,
                    0.61538609
                ],
                "xyz": [
                    5.255426876912024,
                    7.735172434801819,
                    5.969200384504163
                ],
                "label": "Rb",
                "properties": {}
            },
            {
                "species": [
                    {
                        "element": "Rb",
                        "occu": 1
                    }
                ],
                "abc": [
                    0.77834555,
                    0.03906926,
                    0.38461391
                ],
                "xyz": [
                    6.166080783087977,
                    1.2875605951981812,
                    3.728405535495836
                ],
                "label": "Rb",
                "properties": {}
            },
            {
                "species": [
                    {
                        "element": "Rb",
                        "occu": 1
                    }
                ],
                "abc": [
                    0.74741201,
                    0.58687096,
                    0.16954112
                ],
                "xyz": [
                    7.003268619156312,
                    4.165018931314787,
                    1.6462859357397792
                ],
                "label": "Rb",
                "properties": {}
            },
            {
                "species": [
                    {
                        "element": "Rb",
                        "occu": 1
                    }
                ],
                "abc": [
                    0.72486438,
                    0.489885,
                    0.56072362
                ],
                "xyz": [
                    7.338697230319188,
                    4.6117238369417475,
                    5.43741689743943
                ],
                "label": "Rb",
                "properties": {}
            },
            {
                "species": [
                    {
                        "element": "Rb",
                        "occu": 1
                    }
                ],
                "abc": [
                    0.75790138,
                    0.23759774,
                    0.97388854
                ],
                "xyz": [
                    7.682559152664608,
                    4.137056533787686,
                    9.440924997596664
                ],
                "label": "Rb",
                "properties": {}
            },
            {
                "species": [
                    {
                        "element": "Pb",
                        "occu": 1
                    }
                ],
                "abc": [
                    0.27932341,
                    0.15499363,
                    0.24638814
                ],
                "xyz": [
                    2.7958734521358304,
                    1.645839224652152,
                    2.3889690033168267
                ],
                "label": "Pb",
                "properties": {}
            },
            {
                "species": [
                    {
                        "element": "Pb",
                        "occu": 1
                    }
                ],
                "abc": [
                    0.72067659,
                    0.84500637,
                    0.75361186
                ],
                "xyz": [
                    8.625634207864168,
                    7.376893805347848,
                    7.308636916683172
                ],
                "label": "Pb",
                "properties": {}
            },
            {
                "species": [
                    {
                        "element": "O",
                        "occu": 1
                    }
                ],
                "abc": [
                    0.12513615,
                    0.16240864,
                    0.08463852
                ],
                "xyz": [
                    1.4511356661909545,
                    1.254817242556222,
                    0.8211637227859465
                ],
                "label": "O",
                "properties": {}
            },
            {
                "species": [
                    {
                        "element": "O",
                        "occu": 1
                    }
                ],
                "abc": [
                    0.02855296,
                    0.3015274,
                    0.3803633
                ],
                "xyz": [
                    1.7267221437181255,
                    2.934293000308702,
                    3.688112381373276
                ],
                "label": "O",
                "properties": {}
            },
            {
                "species": [
                    {
                        "element": "O",
                        "occu": 1
                    }
                ],
                "abc": [
                    0.47213546,
                    0.35118122,
                    0.1914227
                ],
                "xyz": [
                    4.533126066004332,
                    2.7359275432459103,
                    1.8571858462601787
                ],
                "label": "O",
                "properties": {}
            },
            {
                "species": [
                    {
                        "element": "O",
                        "occu": 1
                    }
                ],
                "abc": [
                    0.53132412,
                    0.16179871,
                    0.64248089
                ],
                "xyz": [
                    5.296110420932128,
                    2.761137875786096,
                    6.228277994686159
                ],
                "label": "O",
                "properties": {}
            },
            {
                "species": [
                    {
                        "element": "O",
                        "occu": 1
                    }
                ],
                "abc": [
                    0.46867588,
                    0.83820129,
                    0.35751911
                ],
                "xyz": [
                    6.125397239067871,
                    6.261595154213904,
                    3.4693279253138396
                ],
                "label": "O",
                "properties": {}
            },
            {
                "species": [
                    {
                        "element": "O",
                        "occu": 1
                    }
                ],
                "abc": [
                    0.52786454,
                    0.64881878,
                    0.8085773
                ],
                "xyz": [
                    6.8883815939956685,
                    6.28680548675409,
                    7.840420073739821
                ],
                "label": "O",
                "properties": {}
            },
            {
                "species": [
                    {
                        "element": "O",
                        "occu": 1
                    }
                ],
                "abc": [
                    0.97144704,
                    0.6984726,
                    0.6196367
                ],
                "xyz": [
                    9.694785516281875,
                    6.088440029691298,
                    6.009493538626724
                ],
                "label": "O",
                "properties": {}
            },
            {
                "species": [
                    {
                        "element": "O",
                        "occu": 1
                    }
                ],
                "abc": [
                    0.87486385,
                    0.83759136,
                    0.91536148
                ],
                "xyz": [
                    9.970371993809046,
                    7.767915787443778,
                    8.876442197214052
                ],
                "label": "O",
                "properties": {}
            }
        ]
    },
    "spacegroup": {
        "source": "spglib",
        "symbol": "P-1",
        "number": 2,
        "point_group": "-1",
        "crystal_system": "triclinic",
        "hall": "-P 1"
    },
    "dielectric": {
        "epsilon_ionic": [
            [
                5.4855601,
                -0.38400672,
                -0.47205428
            ],
            [
                -0.38400672,
                5.48573248,
                0.60596966
            ],
            [
                -0.47205428,
                0.60596966,
                5.44588074
            ]
        ],
        "epsilon_ionic_avg": 5.472391106666667,
        "epsilon_ionic_eig": [
            6.4513898090140795,
            5.12143379170533,
            4.84434971928059
        ],
        "epsilon_electronic": [
            [
                3.27511294,
                -0.01980727,
                0.04526377
            ],
            [
                -0.01980645,
                3.25289674,
                -0.00988577
            ],
            [
                0.04526282,
                -0.00988729,
                3.25373579
            ]
        ],
        "epsilon_electronic_avg": 3.2605818233333337,
        "epsilon_electronic_eig": [
            3.3181496879212555,
            3.2172439296615583,
            3.246351852417187
        ]
    },
    "phonon": {
        "lowest_freq": -0.04979321051757754,
        "frequency": [
            -0.04979321051757754,
            -0.044693102512279016,
            -0.04000089047987415,
            1.0437776920217607,
            1.4405933554339125,
            1.4606758782520957,
            1.6037087568128467,
            1.663229600675094,
            1.804794442534768,
            1.8437979341372248,
            1.8619908020348561,
            1.945426317033786,
            2.10112756027121,
            2.1073734064341885,
            2.145742110323981,
            2.304639906424019,
            2.3696203175217985,
            2.569343961000893,
            2.600646602604095,
            2.708065575041469,
            2.7594494805446215,
            2.766849706924689,
            2.8532932007972156,
            3.042392351440386,
            3.0783033040715386,
            3.17807304246333,
            3.3476218680606915,
            3.5611352111007566,
            3.6154124672245995,
            3.686667393041173,
            4.3591354561068805,
            4.38760181823947,
            4.551749507945356,
            4.8534013360659385,
            5.122335721147125,
            5.123232926374021,
            5.8473143776473275,
            6.111027776899551,
            6.229900603163736,
            6.622570842561534,
            6.765108529660396,
            6.849648608579579,
            7.309847510982382,
            7.49134033496981,
            8.152768386956819,
            8.154604635680673,
            14.769000855941586,
            14.84191639575668,
            14.907340994813529,
            15.065905944129552,
            15.537732134751092,
            16.0980419397245,
            16.727281460060972,
            16.750438708433336
        ]
    },
    "born_effective_charge": {
        "avg_abs_trace": 1.666378148148148,
        "tensors": [
            [
                [
                    1.12439,
                    -0.01588,
                    -0.04139
                ],
                [
                    -0.05699,
                    1.25363,
                    -0.0102
                ],
                [
                    0.11978,
                    0.0989,
                    1.15512
                ]
            ],
            [
                [
                    1.07769,
                    0.02344,
                    0.01359
                ],
                [
                    0.11267,
                    1.38141,
                    0.13208
                ],
                [
                    -0.03771,
                    0.11261,
                    1.17706
                ]
            ],
            [
                [
                    1.16271,
                    -0.12241,
                    -0.01431
                ],
                [
                    -0.07749,
                    1.20847,
                    0.01069
                ],
                [
                    -0.09068,
                    -0.11014,
                    1.22041
                ]
            ],
            [
                [
                    1.33988,
                    0.06923,
                    0.1168
                ],
                [
                    0.01704,
                    0.9145,
                    -0.11457
                ],
                [
                    0.06233,
                    -0.10914,
                    1.23621
                ]
            ],
            [
                [
                    1.33985,
                    0.06921,
                    0.11694
                ],
                [
                    0.01711,
                    0.91452,
                    -0.11485
                ],
                [
                    0.06215,
                    -0.10915,
                    1.23622
                ]
            ],
            [
                [
                    1.16268,
                    -0.12261,
                    -0.01417
                ],
                [
                    -0.07741,
                    1.20846,
                    0.0107
                ],
                [
                    -0.09068,
                    -0.11024,
                    1.22051
                ]
            ],
            [
                [
                    1.07792,
                    0.02327,
                    0.01375
                ],
                [
                    0.11267,
                    1.38142,
                    0.13202
                ],
                [
                    -0.03775,
                    0.11245,
                    1.17689
                ]
            ],
            [
                [
                    1.12424,
                    -0.01578,
                    -0.04163
                ],
                [
                    -0.05693,
                    1.25353,
                    -0.01006
                ],
                [
                    0.11975,
                    0.09897,
                    1.15486
                ]
            ],
            [
                [
                    2.79769,
                    0.01747,
                    0.09592
                ],
                [
                    0.00555,
                    2.68981,
                    -0.06019
                ],
                [
                    0.12541,
                    -0.05256,
                    2.75754
                ]
            ],
            [
                [
                    2.79738,
                    0.01709,
                    0.09606
                ],
                [
                    0.00577,
                    2.68984,
                    -0.06033
                ],
                [
                    0.12521,
                    -0.05281,
                    2.75737
                ]
            ],
            [
                [
                    -1.86941,
                    -0.09392,
                    -0.41536
                ],
                [
                    -0.1716,
                    -1.57899,
                    -0.18609
                ],
                [
                    -0.55208,
                    -0.1863,
                    -2.13754
                ]
            ],
            [
                [
                    -1.88645,
                    0.30483,
                    0.16244
                ],
                [
                    0.27198,
                    -1.84492,
                    -0.35631
                ],
                [
                    0.196,
                    -0.31197,
                    -1.90542
                ]
            ],
            [
                [
                    -2.16865,
                    -0.37089,
                    0.26723
                ],
                [
                    -0.34748,
                    -1.71909,
                    0.15012
                ],
                [
                    0.28703,
                    0.22494,
                    -1.74837
                ]
            ],
            [
                [
                    -1.57672,
                    0.18857,
                    -0.18516
                ],
                [
                    0.2459,
                    -2.30478,
                    0.43449
                ],
                [
                    -0.10926,
                    0.3343,
                    -1.75434
                ]
            ],
            [
                [
                    -1.57682,
                    0.18902,
                    -0.18578
                ],
                [
                    0.24578,
                    -2.30475,
                    0.43456
                ],
                [
                    -0.1094,
                    0.33429,
                    -1.75463
                ]
            ],
            [
                [
                    -2.16971,
                    -0.37131,
                    0.26761
                ],
                [
                    -0.34708,
                    -1.719,
                    0.15026
                ],
                [
                    0.28657,
                    0.22443,
                    -1.74846
                ]
            ],
            [
                [
                    -1.88677,
                    0.30485,
                    0.1627
                ],
                [
                    0.27214,
                    -1.84508,
                    -0.35646
                ],
                [
                    0.19583,
                    -0.31225,
                    -1.90545
                ]
            ],
            [
                [
                    -1.8699,
                    -0.09417,
                    -0.41525
                ],
                [
                    -0.17162,
                    -1.57898,
                    -0.18587
                ],
                [
                    -0.55251,
                    -0.18632,
                    -2.13798
                ]
            ]
        ]
    },
    "band_gap": 1.6034,
    "is_direct": false,
    "formula": "Rb4PbO4"
}