{
    "mp_id": "mp-770419",
    "nelements": 3,
    "nsites": 25,
    "elements": [
        "O",
        "Sr",
        "Zr"
    ],
    "structure": {
        "@module": "pymatgen.core.structure",
        "@class": "Structure",
        "charge": null,
        "lattice": {
            "matrix": [
                [
                    3.21854373,
                    1.8582271,
                    8.99009497
                ],
                [
                    -3.21854373,
                    1.85822709,
                    8.99009497
                ],
                [
                    0.0,
                    -3.71645419,
                    8.99009497
                ]
            ],
            "a": 9.727992560992018,
            "b": 9.727992559081832,
            "c": 9.727992563524493,
            "alpha": 38.64121709301655,
            "beta": 38.641217143123185,
            "gamma": 38.64121702658643,
            "volume": 322.6069597996029
        },
        "sites": [
            {
                "species": [
                    {
                        "element": "Sr",
                        "occu": 1
                    }
                ],
                "abc": [
                    0.33375327,
                    0.33375327,
                    0.33375327
                ],
                "xyz": [
                    0.0,
                    0.0,
                    9.001420781544155
                ],
                "label": "Sr",
                "properties": {}
            },
            {
                "species": [
                    {
                        "element": "Sr",
                        "occu": 1
                    }
                ],
                "abc": [
                    0.66624673,
                    0.66624673,
                    0.66624673
                ],
                "xyz": [
                    0.0,
                    0.0,
                    17.96886412845584
                ],
                "label": "Sr",
                "properties": {}
            },
            {
                "species": [
                    {
                        "element": "Zr",
                        "occu": 1
                    }
                ],
                "abc": [
                    0.74796412,
                    0.4844243,
                    0.11246351
                ],
                "xyz": [
                    0.8482144352663286,
                    1.8720920719643321,
                    12.090346571287792
                ],
                "label": "Zr",
                "properties": {}
            },
            {
                "species": [
                    {
                        "element": "Zr",
                        "occu": 1
                    }
                ],
                "abc": [
                    0.88753649,
                    0.25203588,
                    0.5155757
                ],
                "xyz": [
                    2.045386503726675,
                    0.2014707872976853,
                    14.879938338712206
                ],
                "label": "Zr",
                "properties": {}
            },
            {
                "species": [
                    {
                        "element": "Zr",
                        "occu": 1
                    }
                ],
                "abc": [
                    0.5155757,
                    0.88753649,
                    0.25203588
                ],
                "xyz": [
                    -1.1971720684603468,
                    1.6706212846666468,
                    14.879938338712208
                ],
                "label": "Zr",
                "properties": {}
            },
            {
                "species": [
                    {
                        "element": "Zr",
                        "occu": 1
                    }
                ],
                "abc": [
                    0.0,
                    0.0,
                    0.0
                ],
                "xyz": [
                    0.0,
                    0.0,
                    0.0
                ],
                "label": "Zr",
                "properties": {}
            },
            {
                "species": [
                    {
                        "element": "Zr",
                        "occu": 1
                    }
                ],
                "abc": [
                    0.4844243,
                    0.11246351,
                    0.74796412
                ],
                "xyz": [
                    1.1971720684603466,
                    -1.6706212846666468,
                    12.09034657128779
                ],
                "label": "Zr",
                "properties": {}
            },
            {
                "species": [
                    {
                        "element": "Zr",
                        "occu": 1
                    }
                ],
                "abc": [
                    0.11246351,
                    0.74796412,
                    0.4844243
                ],
                "xyz": [
                    -2.045386503726675,
                    -0.20147078729768508,
                    12.09034657128779
                ],
                "label": "Zr",
                "properties": {}
            },
            {
                "species": [
                    {
                        "element": "Zr",
                        "occu": 1
                    }
                ],
                "abc": [
                    0.25203588,
                    0.5155757,
                    0.88753649
                ],
                "xyz": [
                    -0.8482144352663286,
                    -1.8720920719643321,
                    14.879938338712208
                ],
                "label": "Zr",
                "properties": {}
            },
            {
                "species": [
                    {
                        "element": "O",
                        "occu": 1
                    }
                ],
                "abc": [
                    0.76501165,
                    0.32311676,
                    0.03702787
                ],
                "xyz": [
                    1.4222580275285397,
                    1.884377313902468,
                    10.11526181329191
                ],
                "label": "O",
                "properties": {}
            },
            {
                "species": [
                    {
                        "element": "O",
                        "occu": 1
                    }
                ],
                "abc": [
                    0.85137894,
                    0.58682445,
                    0.15177803
                ],
                "xyz": [
                    0.8514801950328474,
                    2.108432413198179,
                    14.294083966335457
                ],
                "label": "O",
                "properties": {}
            },
            {
                "species": [
                    {
                        "element": "O",
                        "occu": 1
                    }
                ],
                "abc": [
                    0.84822197,
                    0.14862106,
                    0.41317555
                ],
                "xyz": [
                    2.251696122382794,
                    0.3168127273028478,
                    12.676200943664542
                ],
                "label": "O",
                "properties": {}
            },
            {
                "species": [
                    {
                        "element": "O",
                        "occu": 1
                    }
                ],
                "abc": [
                    0.96297213,
                    0.23498835,
                    0.67688324
                ],
                "xyz": [
                    2.3430476306606995,
                    -0.289522927123651,
                    16.855023096708088
                ],
                "label": "O",
                "properties": {}
            },
            {
                "species": [
                    {
                        "element": "O",
                        "occu": 1
                    }
                ],
                "abc": [
                    0.67688324,
                    0.96297213,
                    0.23498835
                ],
                "xyz": [
                    -0.9207896031321599,
                    2.173900241026119,
                    16.855023096708088
                ],
                "label": "O",
                "properties": {}
            },
            {
                "species": [
                    {
                        "element": "O",
                        "occu": 1
                    }
                ],
                "abc": [
                    0.41317555,
                    0.84822197,
                    0.14862106
                ],
                "xyz": [
                    -1.4002159273499464,
                    1.7916196858953308,
                    12.676200943664542
                ],
                "label": "O",
                "properties": {}
            },
            {
                "species": [
                    {
                        "element": "O",
                        "occu": 1
                    }
                ],
                "abc": [
                    0.76260412,
                    0.76260412,
                    0.76260412
                ],
                "xyz": [
                    0.0,
                    0.0,
                    20.56765038993983
                ],
                "label": "O",
                "properties": {}
            },
            {
                "species": [
                    {
                        "element": "O",
                        "occu": 1
                    }
                ],
                "abc": [
                    0.5714072,
                    0.5714072,
                    0.5714072
                ],
                "xyz": [
                    0.0,
                    0.0,
                    15.411014983625353
                ],
                "label": "O",
                "properties": {}
            },
            {
                "species": [
                    {
                        "element": "O",
                        "occu": 1
                    }
                ],
                "abc": [
                    0.23739588,
                    0.23739588,
                    0.23739588
                ],
                "xyz": [
                    0.0,
                    1.1102230246251565e-16,
                    6.40263452006017
                ],
                "label": "O",
                "properties": {}
            },
            {
                "species": [
                    {
                        "element": "O",
                        "occu": 1
                    }
                ],
                "abc": [
                    0.4285928,
                    0.4285928,
                    0.4285928
                ],
                "xyz": [
                    0.0,
                    0.0,
                    11.559269926374647
                ],
                "label": "O",
                "properties": {}
            },
            {
                "species": [
                    {
                        "element": "O",
                        "occu": 1
                    }
                ],
                "abc": [
                    0.58682445,
                    0.15177803,
                    0.85137894
                ],
                "xyz": [
                    1.4002159273499468,
                    -1.7916196858953308,
                    14.294083966335457
                ],
                "label": "O",
                "properties": {}
            },
            {
                "species": [
                    {
                        "element": "O",
                        "occu": 1
                    }
                ],
                "abc": [
                    0.32311676,
                    0.03702787,
                    0.76501165
                ],
                "xyz": [
                    0.9207896031321596,
                    -2.1739002410261192,
                    10.115261813291912
                ],
                "label": "O",
                "properties": {}
            },
            {
                "species": [
                    {
                        "element": "O",
                        "occu": 1
                    }
                ],
                "abc": [
                    0.03702787,
                    0.76501165,
                    0.32311676
                ],
                "xyz": [
                    -2.343047630660699,
                    0.28952292712365124,
                    10.115261813291912
                ],
                "label": "O",
                "properties": {}
            },
            {
                "species": [
                    {
                        "element": "O",
                        "occu": 1
                    }
                ],
                "abc": [
                    0.15177803,
                    0.85137894,
                    0.58682445
                ],
                "xyz": [
                    -2.251696122382794,
                    -0.3168127273028478,
                    14.294083966335457
                ],
                "label": "O",
                "properties": {}
            },
            {
                "species": [
                    {
                        "element": "O",
                        "occu": 1
                    }
                ],
                "abc": [
                    0.14862106,
                    0.41317555,
                    0.84822197
                ],
                "xyz": [
                    -0.8514801950328478,
                    -2.108432413198179,
                    12.676200943664542
                ],
                "label": "O",
                "properties": {}
            },
            {
                "species": [
                    {
                        "element": "O",
                        "occu": 1
                    }
                ],
                "abc": [
                    0.23498835,
                    0.67688324,
                    0.96297213
                ],
                "xyz": [
                    -1.4222580275285397,
                    -1.8843773139024682,
                    16.855023096708088
                ],
                "label": "O",
                "properties": {}
            }
        ]
    },
    "spacegroup": {
        "source": "spglib",
        "symbol": "R-3",
        "number": 148,
        "point_group": "-3",
        "crystal_system": "trigonal",
        "hall": "-R 3"
    },
    "dielectric": {
        "epsilon_ionic": [
            [
                12.20278096,
                7.7e-07,
                -1.926e-05
            ],
            [
                7.7e-07,
                12.2027948,
                -9.9e-07
            ],
            [
                -1.926e-05,
                -9.9e-07,
                12.50226865
            ]
        ],
        "epsilon_ionic_avg": 12.302614803333332,
        "epsilon_ionic_eig": [
            12.502268651241875,
            12.202780916064423,
            12.202794842693699
        ],
        "epsilon_electronic": [
            [
                4.52025655,
                -4.57e-06,
                -0.0
            ],
            [
                4.57e-06,
                4.52025536,
                0.0
            ],
            [
                0.0,
                0.0,
                4.66138206
            ]
        ],
        "epsilon_electronic_avg": 4.56729799,
        "epsilon_electronic_eig": [
            4.520255955,
            4.520255955,
            4.66138206
        ]
    },
    "phonon": {
        "lowest_freq": -0.019932038988618797,
        "frequency": [
            -0.019932038988618797,
            -0.008110887681449625,
            -0.00811088661175102,
            3.1212194313069404,
            3.121219830651049,
            3.9089310997069227,
            3.90893159989505,
            3.9604692877825487,
            4.1407165225891065,
            4.433345845218775,
            4.4333463138041465,
            4.860723209977457,
            4.8607233205948,
            5.426958110745643,
            5.565322649303987,
            5.566036219351003,
            5.566036724306643,
            5.619014389639079,
            5.619014498377068,
            6.14618974573649,
            6.666231628314565,
            6.7556293950130755,
            6.841399923633155,
            6.841399959356856,
            7.221833089849833,
            7.221833326742719,
            7.637576677142788,
            8.268595882044567,
            8.292798769324367,
            8.4087872273122,
            8.408787445298564,
            8.604291232146442,
            8.60429140257312,
            8.923601237685395,
            9.12666027746043,
            9.126660826423839,
            9.361715078182272,
            9.438530802833768,
            9.438531268923496,
            10.535843739722765,
            10.53584438923918,
            10.655629525676519,
            11.00539047785527,
            11.005390666617416,
            11.228235679249616,
            11.660956367505495,
            11.660956943873611,
            11.73835830736105,
            11.738358713363521,
            11.859929907360264,
            12.180201074290041,
            13.264556633953134,
            13.264556937966468,
            13.31482245590178,
            13.711185901492977,
            13.75748359654339,
            14.202266545353924,
            14.20226688952452,
            14.877913657173858,
            15.209267543432208,
            16.3644703927744,
            16.364470691470444,
            16.659017599563104,
            16.65901803968533,
            17.059030130794916,
            17.366990933273186,
            17.36699212945107,
            17.542400128294652,
            17.542400964212625,
            18.74573669425948,
            20.635176427121504,
            20.635176960095176,
            20.944724974839225,
            20.944725208215537,
            22.892651072301536
        ]
    },
    "born_effective_charge": {
        "avg_abs_trace": 3.2646741333333336,
        "tensors": [
            [
                [
                    2.3565,
                    -0.00218,
                    -0.0
                ],
                [
                    0.00217,
                    2.35649,
                    -0.0
                ],
                [
                    -0.0,
                    -0.0,
                    2.86564
                ]
            ],
            [
                [
                    2.3565,
                    -0.00219,
                    -1e-05
                ],
                [
                    0.0022,
                    2.3565,
                    0.0
                ],
                [
                    -0.0,
                    -0.0,
                    2.86558
                ]
            ],
            [
                [
                    5.42332,
                    0.55242,
                    -0.09952
                ],
                [
                    0.55195,
                    4.59219,
                    0.30311
                ],
                [
                    -0.13045,
                    0.18722,
                    5.05755
                ]
            ],
            [
                [
                    4.32179,
                    0.08401,
                    0.31225
                ],
                [
                    0.08353,
                    5.69379,
                    -0.06535
                ],
                [
                    0.2273,
                    0.0193,
                    5.05759
                ]
            ],
            [
                [
                    5.27823,
                    -0.63573,
                    -0.21272
                ],
                [
                    -0.63622,
                    4.73733,
                    -0.23775
                ],
                [
                    -0.09694,
                    -0.2065,
                    5.05759
                ]
            ],
            [
                [
                    5.49625,
                    0.03039,
                    -5e-05
                ],
                [
                    -0.03039,
                    5.49625,
                    -0.0
                ],
                [
                    -0.0,
                    -0.0,
                    5.83686
                ]
            ],
            [
                [
                    5.27819,
                    -0.63574,
                    -0.21273
                ],
                [
                    -0.63622,
                    4.73735,
                    -0.23774
                ],
                [
                    -0.09691,
                    -0.20658,
                    5.05755
                ]
            ],
            [
                [
                    4.32177,
                    0.08404,
                    0.31227
                ],
                [
                    0.08356,
                    5.69375,
                    -0.06536
                ],
                [
                    0.22736,
                    0.01937,
                    5.05755
                ]
            ],
            [
                [
                    5.42333,
                    0.55245,
                    -0.09953
                ],
                [
                    0.55195,
                    4.59224,
                    0.30309
                ],
                [
                    -0.13036,
                    0.1872,
                    5.05759
                ]
            ],
            [
                [
                    -1.91919,
                    0.39922,
                    0.50653
                ],
                [
                    0.41057,
                    -2.3389,
                    -0.91239
                ],
                [
                    0.52755,
                    -0.94419,
                    -3.58107
                ]
            ],
            [
                [
                    -2.15897,
                    0.0733,
                    0.0682
                ],
                [
                    0.07962,
                    -2.96864,
                    -0.08491
                ],
                [
                    -0.0274,
                    0.01429,
                    -2.29249
                ]
            ],
            [
                [
                    -2.83245,
                    0.30922,
                    -0.10764
                ],
                [
                    0.31551,
                    -2.29518,
                    -0.01659
                ],
                [
                    0.02606,
                    0.01659,
                    -2.29252
                ]
            ],
            [
                [
                    -2.58462,
                    -0.02638,
                    -1.04343
                ],
                [
                    -0.01504,
                    -1.67347,
                    0.01754
                ],
                [
                    -1.08147,
                    0.01519,
                    -3.58106
                ]
            ],
            [
                [
                    -1.88332,
                    -0.38986,
                    0.53691
                ],
                [
                    -0.37851,
                    -2.37477,
                    0.89486
                ],
                [
                    0.55389,
                    0.92898,
                    -3.58106
                ]
            ],
            [
                [
                    -2.70002,
                    -0.39198,
                    0.03945
                ],
                [
                    -0.38569,
                    -2.42762,
                    0.10152
                ],
                [
                    0.00134,
                    -0.03087,
                    -2.29252
                ]
            ],
            [
                [
                    -3.13396,
                    -0.14682,
                    0.0
                ],
                [
                    0.14682,
                    -3.13396,
                    0.0
                ],
                [
                    -0.0,
                    0.0,
                    -1.65134
                ]
            ],
            [
                [
                    -2.91542,
                    0.15953,
                    0.0
                ],
                [
                    -0.15953,
                    -2.91542,
                    0.0
                ],
                [
                    -0.0,
                    -0.0,
                    -1.68475
                ]
            ],
            [
                [
                    -3.13394,
                    -0.14679,
                    0.0
                ],
                [
                    0.14679,
                    -3.13393,
                    -0.0
                ],
                [
                    -0.0,
                    -0.0,
                    -1.6513
                ]
            ],
            [
                [
                    -2.91544,
                    0.15956,
                    0.0
                ],
                [
                    -0.15957,
                    -2.91545,
                    0.0
                ],
                [
                    -0.0,
                    -0.0,
                    -1.6847
                ]
            ],
            [
                [
                    -2.69999,
                    -0.39199,
                    0.03944
                ],
                [
                    -0.38567,
                    -2.4276,
                    0.10152
                ],
                [
                    0.00133,
                    -0.03087,
                    -2.29249
                ]
            ],
            [
                [
                    -1.88332,
                    -0.38986,
                    0.5369
                ],
                [
                    -0.37851,
                    -2.37477,
                    0.89486
                ],
                [
                    0.55391,
                    0.92897,
                    -3.58107
                ]
            ],
            [
                [
                    -2.58463,
                    -0.02638,
                    -1.04341
                ],
                [
                    -0.01503,
                    -1.67347,
                    0.01754
                ],
                [
                    -1.08147,
                    0.01522,
                    -3.58107
                ]
            ],
            [
                [
                    -2.83245,
                    0.30921,
                    -0.10763
                ],
                [
                    0.31553,
                    -2.29516,
                    -0.01661
                ],
                [
                    0.02607,
                    0.01659,
                    -2.29249
                ]
            ],
            [
                [
                    -2.15898,
                    0.07332,
                    0.0682
                ],
                [
                    0.07961,
                    -2.96865,
                    -0.08492
                ],
                [
                    -0.0274,
                    0.01427,
                    -2.29252
                ]
            ],
            [
                [
                    -1.91919,
                    0.39923,
                    0.50652
                ],
                [
                    0.41056,
                    -2.3389,
                    -0.9124
                ],
                [
                    0.52758,
                    -0.94417,
                    -3.58106
                ]
            ]
        ]
    },
    "band_gap": 4.3099,
    "is_direct": false,
    "formula": "Sr2Zr7O16"
}